 Entering Gaussian System, Link 0=g16
 Input=rotation_std33.gjf
 Output=rotation_std33.log
 Initial command:
 /share/apps/gaussian/g16/l1.exe "/scratch/jingdan2/247462/Gau-88224.inp" -scrdir="/scratch/jingdan2/247462/"
 Entering Link 1 = /share/apps/gaussian/g16/l1.exe PID=     88231.
  
 Copyright (c) 1988-2019, Gaussian, Inc.  All Rights Reserved.
  
 This is part of the Gaussian(R) 16 program.  It is based on
 the Gaussian(R) 09 system (copyright 2009, Gaussian, Inc.),
 the Gaussian(R) 03 system (copyright 2003, Gaussian, Inc.),
 the Gaussian(R) 98 system (copyright 1998, Gaussian, Inc.),
 the Gaussian(R) 94 system (copyright 1995, Gaussian, Inc.),
 the Gaussian 92(TM) system (copyright 1992, Gaussian, Inc.),
 the Gaussian 90(TM) system (copyright 1990, Gaussian, Inc.),
 the Gaussian 88(TM) system (copyright 1988, Gaussian, Inc.),
 the Gaussian 86(TM) system (copyright 1986, Carnegie Mellon
 University), and the Gaussian 82(TM) system (copyright 1983,
 Carnegie Mellon University). Gaussian is a federally registered
 trademark of Gaussian, Inc.
  
 This software contains proprietary and confidential information,
 including trade secrets, belonging to Gaussian, Inc.
  
 This software is provided under written license and may be
 used, copied, transmitted, or stored only in accord with that
 written license.
  
 The following legend is applicable only to US Government
 contracts under FAR:
  
                    RESTRICTED RIGHTS LEGEND
  
 Use, reproduction and disclosure by the US Government is
 subject to restrictions as set forth in subparagraphs (a)
 and (c) of the Commercial Computer Software - Restricted
 Rights clause in FAR 52.227-19.
  
 Gaussian, Inc.
 340 Quinnipiac St., Bldg. 40, Wallingford CT 06492
  
  
 ---------------------------------------------------------------
 Warning -- This program may not be used in any manner that
 competes with the business of Gaussian, Inc. or will provide
 assistance to any competitor of Gaussian, Inc.  The licensee
 of this program is prohibited from giving any competitor of
 Gaussian, Inc. access to this program.  By using this program,
 the user acknowledges that Gaussian, Inc. is engaged in the
 business of creating and licensing software in the field of
 computational chemistry and represents and warrants to the
 licensee that it is not a competitor of Gaussian, Inc. and that
 it will not use this program in any manner prohibited above.
 ---------------------------------------------------------------
  

 Cite this work as:
 Gaussian 16, Revision C.01,
 M. J. Frisch, G. W. Trucks, H. B. Schlegel, G. E. Scuseria, 
 M. A. Robb, J. R. Cheeseman, G. Scalmani, V. Barone, 
 G. A. Petersson, H. Nakatsuji, X. Li, M. Caricato, A. V. Marenich, 
 J. Bloino, B. G. Janesko, R. Gomperts, B. Mennucci, H. P. Hratchian, 
 J. V. Ortiz, A. F. Izmaylov, J. L. Sonnenberg, D. Williams-Young, 
 F. Ding, F. Lipparini, F. Egidi, J. Goings, B. Peng, A. Petrone, 
 T. Henderson, D. Ranasinghe, V. G. Zakrzewski, J. Gao, N. Rega, 
 G. Zheng, W. Liang, M. Hada, M. Ehara, K. Toyota, R. Fukuda, 
 J. Hasegawa, M. Ishida, T. Nakajima, Y. Honda, O. Kitao, H. Nakai, 
 T. Vreven, K. Throssell, J. A. Montgomery, Jr., J. E. Peralta, 
 F. Ogliaro, M. J. Bearpark, J. J. Heyd, E. N. Brothers, K. N. Kudin, 
 V. N. Staroverov, T. A. Keith, R. Kobayashi, J. Normand, 
 K. Raghavachari, A. P. Rendell, J. C. Burant, S. S. Iyengar, 
 J. Tomasi, M. Cossi, J. M. Millam, M. Klene, C. Adamo, R. Cammi, 
 J. W. Ochterski, R. L. Martin, K. Morokuma, O. Farkas, 
 J. B. Foresman, and D. J. Fox, Gaussian, Inc., Wallingford CT, 2019.
 
 ******************************************
 Gaussian 16:  ES64L-G16RevC.01  3-Jul-2019
                 5-Dec-2024 
 ******************************************
 %nprocshared=8
 Will use up to    8 processors via shared memory.
 %mem=8GB
 -------------------------
 # freq b3lyp/6-31g(2df,p)
 -------------------------
 1/10=4,30=1,38=1/1,3;
 2/12=2,17=6,18=5,40=1/2;
 3/5=1,6=6,7=104,11=2,25=1,30=1,71=2,74=-5,140=1/1,2,3;
 4//1;
 5/5=2,38=5,98=1/2;
 8/6=4,10=90,11=11/1;
 11/6=1,8=1,9=11,15=111,16=1/1,2,10;
 10/6=1/2;
 6/7=2,8=2,9=2,10=2,28=1/1;
 7/8=1,10=1,25=1/1,2,3,16;
 1/10=4,30=1/3;
 99//99;
 -------------------------------------------------------------------
 energy: -15.614184499692 gnorm: 0.000439253721 xtb: 6.6.1 (8d0f1dd)
 -------------------------------------------------------------------
 Symbolic Z-matrix:
 Charge =  0 Multiplicity = 1
 C                    -0.57976   0.48412   0.20678 
 H                    -0.75109   0.93592   1.19429 
 H                    -0.33144   1.29321  -0.49682 
 C                     0.62107  -0.46461   0.23088 
 H                     0.3976   -1.31087  -0.42927 
 H                     0.83504  -0.84478   1.23576 
 F                     1.74507   0.1829   -0.23908 
 O                    -1.70248  -0.2657   -0.22854 
 H                    -2.48383   0.28896  -0.14991 
 

 GradGradGradGradGradGradGradGradGradGradGradGradGradGradGradGradGradGrad
 Berny optimization.
 Initialization pass.
 Trust Radius=3.00D-01 FncErr=1.00D-07 GrdErr=1.00D-07 EigMax=2.50D+02 EigMin=1.00D-04
 Number of steps in this run=      2 maximum allowed number of steps=      2.
 GradGradGradGradGradGradGradGradGradGradGradGradGradGradGradGradGradGrad

                          Input orientation:                          
 ---------------------------------------------------------------------
 Center     Atomic      Atomic             Coordinates (Angstroms)
 Number     Number       Type             X           Y           Z
 ---------------------------------------------------------------------
      1          6           0       -0.579755    0.484123    0.206781
      2          1           0       -0.751092    0.935920    1.194290
      3          1           0       -0.331436    1.293211   -0.496823
      4          6           0        0.621070   -0.464608    0.230878
      5          1           0        0.397595   -1.310868   -0.429271
      6          1           0        0.835037   -0.844777    1.235756
      7          9           0        1.745072    0.182896   -0.239079
      8          8           0       -1.702477   -0.265701   -0.228536
      9          1           0       -2.483831    0.288963   -0.149906
 ---------------------------------------------------------------------
                    Distance matrix (angstroms):
                    1          2          3          4          5
     1  C    0.000000
     2  H    1.099387   0.000000
     3  H    1.100611   1.778660   0.000000
     4  C    1.530572   2.184598   2.127615   0.000000
     5  H    2.140506   3.000581   2.705047   1.096309   0.000000
     6  H    2.196907   2.385038   2.988893   1.095486   1.783511
     7  F    2.386284   2.975303   2.368780   1.379674   2.020692
     8  O    1.418535   2.091282   2.093308   2.376867   2.354352
     9  H    1.947002   2.286438   2.400348   3.217651   3.307585
                    6          7          8          9
     6  H    0.000000
     7  F    2.014799   0.000000
     8  O    2.986379   3.476628   0.000000
     9  H    3.770983   4.231173   0.961431   0.000000
 Stoichiometry    C2H5FO
 Framework group  C1[X(C2H5FO)]
 Deg. of freedom    21
 Full point group                 C1      NOp   1
 Largest Abelian subgroup         C1      NOp   1
 Largest concise Abelian subgroup C1      NOp   1
                         Standard orientation:                         
 ---------------------------------------------------------------------
 Center     Atomic      Atomic             Coordinates (Angstroms)
 Number     Number       Type             X           Y           Z
 ---------------------------------------------------------------------
      1          6           0       -0.579755    0.484123    0.206781
      2          1           0       -0.751092    0.935920    1.194290
      3          1           0       -0.331436    1.293211   -0.496823
      4          6           0        0.621070   -0.464608    0.230878
      5          1           0        0.397595   -1.310868   -0.429271
      6          1           0        0.835037   -0.844777    1.235756
      7          9           0        1.745072    0.182896   -0.239079
      8          8           0       -1.702477   -0.265701   -0.228536
      9          1           0       -2.483831    0.288964   -0.149906
 ---------------------------------------------------------------------
 Rotational constants (GHZ):          27.1302447           3.9808507           3.8097278
 Standard basis: 6-31G(2df,p) (6D, 7F)
 There are   149 symmetry adapted cartesian basis functions of A   symmetry.
 There are   137 symmetry adapted basis functions of A   symmetry.
   137 basis functions,   211 primitive gaussians,   149 cartesian basis functions
    17 alpha electrons       17 beta electrons
       nuclear repulsion energy       127.9847703034 Hartrees.
 NAtoms=    9 NActive=    9 NUniq=    9 SFac= 1.00D+00 NAtFMM=   60 NAOKFM=F Big=F
 Integral buffers will be    131072 words long.
 Raffenetti 2 integral format.
 Two-electron integral symmetry is turned on.
 One-electron integrals computed using PRISM.
 NBasis=   137 RedAO= T EigKep=  1.20D-03  NBF=   137
 NBsUse=   137 1.00D-06 EigRej= -1.00D+00 NBFU=   137
 ExpMin= 1.61D-01 ExpMax= 7.00D+03 ExpMxC= 1.05D+03 IAcc=3 IRadAn=         5 AccDes= 0.00D+00
 Harris functional with IExCor=  402 and IRadAn=       5 diagonalized for initial guess.
 HarFok:  IExCor=  402 AccDes= 0.00D+00 IRadAn=         5 IDoV= 1 UseB2=F ITyADJ=14
 ICtDFT=  3500011 ScaDFX=  1.000000  1.000000  1.000000  1.000000
 FoFCou: FMM=F IPFlag=           0 FMFlag=      100000 FMFlg1=           0
         NFxFlg=           0 DoJE=T BraDBF=F KetDBF=T FulRan=T
         wScrn=  0.000000 ICntrl=       500 IOpCl=  0 I1Cent=   200000004 NGrid=           0
         NMat0=    1 NMatS0=      1 NMatT0=    0 NMatD0=    1 NMtDS0=    0 NMtDT0=    0
 Petite list used in FoFCou.
 Keep R1 ints in memory in canonical form, NReq=52495207.
 Requested convergence on RMS density matrix=1.00D-08 within 128 cycles.
 Requested convergence on MAX density matrix=1.00D-06.
 Requested convergence on             energy=1.00D-06.
 No special actions if energy rises.
 Integral accuracy reduced to 1.0D-05 until final iterations.
 Initial convergence to 1.0D-05 achieved.  Increase integral accuracy.
 SCF Done:  E(RB3LYP) =  -254.277776512     A.U. after   11 cycles
            NFock= 11  Conv=0.75D-08     -V/T= 2.0064
 DoSCS=F DFT=T ScalE2(SS,OS)=  1.000000  1.000000
 Range of M.O.s used for correlation:     1   137
 NBasis=   137 NAE=    17 NBE=    17 NFC=     0 NFV=     0
 NROrb=    137 NOA=    17 NOB=    17 NVA=   120 NVB=   120

 **** Warning!!: The largest alpha MO coefficient is  0.18600843D+02

 Symmetrizing basis deriv contribution to polar:
 IMax=3 JMax=2 DiffMx= 0.00D+00
 G2DrvN: will do    10 centers at a time, making    1 passes.
 Calling FoFCou, ICntrl=  3107 FMM=F I1Cent=   0 AccDes= 0.00D+00.
 End of G2Drv F.D. properties file   721 does not exist.
 End of G2Drv F.D. properties file   722 does not exist.
 End of G2Drv F.D. properties file   788 does not exist.
          IDoAtm=111111111
          Differentiating once with respect to electric field.
                with respect to dipole field.
          Differentiating once with respect to nuclear coordinates.
 Keep R1 ints in memory in canonical form, NReq=52475930.
          There are    30 degrees of freedom in the 1st order CPHF.  IDoFFX=6 NUNeed=     3.
     27 vectors produced by pass  0 Test12= 6.80D-15 3.33D-09 XBig12= 1.54D+01 1.39D+00.
 AX will form    27 AO Fock derivatives at one time.
     27 vectors produced by pass  1 Test12= 6.80D-15 3.33D-09 XBig12= 1.09D+00 2.55D-01.
     27 vectors produced by pass  2 Test12= 6.80D-15 3.33D-09 XBig12= 1.86D-02 2.80D-02.
     27 vectors produced by pass  3 Test12= 6.80D-15 3.33D-09 XBig12= 6.19D-05 1.41D-03.
     27 vectors produced by pass  4 Test12= 6.80D-15 3.33D-09 XBig12= 9.49D-08 5.82D-05.
     15 vectors produced by pass  5 Test12= 6.80D-15 3.33D-09 XBig12= 7.33D-11 1.50D-06.
      3 vectors produced by pass  6 Test12= 6.80D-15 3.33D-09 XBig12= 5.85D-14 4.38D-08.
 InvSVY:  IOpt=1 It=  1 EMax= 4.44D-15
 Solved reduced A of dimension   153 with    30 vectors.
 Isotropic polarizability for W=    0.000000       28.31 Bohr**3.
 End of Minotr F.D. properties file   721 does not exist.
 End of Minotr F.D. properties file   722 does not exist.
 End of Minotr F.D. properties file   788 does not exist.

 **********************************************************************

            Population analysis using the SCF Density.

 **********************************************************************

 Orbital symmetries:
       Occupied  (A) (A) (A) (A) (A) (A) (A) (A) (A) (A) (A) (A)
                 (A) (A) (A) (A) (A)
       Virtual   (A) (A) (A) (A) (A) (A) (A) (A) (A) (A) (A) (A)
                 (A) (A) (A) (A) (A) (A) (A) (A) (A) (A) (A) (A)
                 (A) (A) (A) (A) (A) (A) (A) (A) (A) (A) (A) (A)
                 (A) (A) (A) (A) (A) (A) (A) (A) (A) (A) (A) (A)
                 (A) (A) (A) (A) (A) (A) (A) (A) (A) (A) (A) (A)
                 (A) (A) (A) (A) (A) (A) (A) (A) (A) (A) (A) (A)
                 (A) (A) (A) (A) (A) (A) (A) (A) (A) (A) (A) (A)
                 (A) (A) (A) (A) (A) (A) (A) (A) (A) (A) (A) (A)
                 (A) (A) (A) (A) (A) (A) (A) (A) (A) (A) (A) (A)
                 (A) (A) (A) (A) (A) (A) (A) (A) (A) (A) (A) (A)
 The electronic state is 1-A.
 Alpha  occ. eigenvalues --  -24.66526 -19.14350 -10.25111 -10.23460  -1.18007
 Alpha  occ. eigenvalues --   -1.02450  -0.74534  -0.62125  -0.52998  -0.49835
 Alpha  occ. eigenvalues --   -0.45878  -0.45349  -0.42325  -0.36459  -0.32949
 Alpha  occ. eigenvalues --   -0.32110  -0.27551
 Alpha virt. eigenvalues --    0.06483   0.10280   0.13969   0.14754   0.15851
 Alpha virt. eigenvalues --    0.19854   0.22228   0.25094   0.42518   0.47196
 Alpha virt. eigenvalues --    0.48475   0.51034   0.54692   0.63768   0.67027
 Alpha virt. eigenvalues --    0.68831   0.70237   0.71580   0.75436   0.78287
 Alpha virt. eigenvalues --    0.79227   0.82887   0.86773   0.89542   0.91187
 Alpha virt. eigenvalues --    0.94077   0.97207   1.00582   1.03140   1.06793
 Alpha virt. eigenvalues --    1.08915   1.10634   1.26199   1.27439   1.31251
 Alpha virt. eigenvalues --    1.38543   1.40815   1.43868   1.47159   1.51995
 Alpha virt. eigenvalues --    1.59556   1.63790   1.64832   1.69727   1.77378
 Alpha virt. eigenvalues --    1.91620   1.98065   2.07549   2.10441   2.21320
 Alpha virt. eigenvalues --    2.26076   2.40013   2.40622   2.47693   2.53385
 Alpha virt. eigenvalues --    2.60479   2.62955   2.65721   2.79796   2.82229
 Alpha virt. eigenvalues --    2.88114   2.92302   2.95847   2.98244   3.05754
 Alpha virt. eigenvalues --    3.15850   3.26918   3.34585   3.36115   3.38296
 Alpha virt. eigenvalues --    3.39370   3.49723   3.53012   3.56024   3.79515
 Alpha virt. eigenvalues --    3.81009   3.86386   3.93618   4.13353   4.18504
 Alpha virt. eigenvalues --    4.20703   4.28027   4.32595   4.38344   4.42008
 Alpha virt. eigenvalues --    4.42095   4.48991   4.50446   4.56664   4.59296
 Alpha virt. eigenvalues --    4.62093   4.65496   4.66462   4.70755   4.73985
 Alpha virt. eigenvalues --    4.79114   4.79963   4.83485   4.98011   5.22343
 Alpha virt. eigenvalues --    5.30840   5.40378   5.46310   5.53932   5.83977
 Alpha virt. eigenvalues --    5.92064   5.97967   6.05106   6.66955   6.67806
 Alpha virt. eigenvalues --    6.79214   6.80028   7.03951   7.24969   7.31123
 Alpha virt. eigenvalues --    7.33378   9.54918  10.92539  11.90919  13.14603
          Condensed to atoms (all electrons):
               1          2          3          4          5          6
     1  C    4.883153   0.354012   0.356851   0.354296  -0.051031  -0.038140
     2  H    0.354012   0.663373  -0.053860  -0.024817   0.006494  -0.007787
     3  H    0.356851  -0.053860   0.651685  -0.044489  -0.000174   0.006415
     4  C    0.354296  -0.024817  -0.044489   4.695283   0.355074   0.352999
     5  H   -0.051031   0.006494  -0.000174   0.355074   0.630770  -0.048808
     6  H   -0.038140  -0.007787   0.006415   0.352999  -0.048808   0.651370
     7  F   -0.039213   0.001587   0.008127   0.380149  -0.021624  -0.022512
     8  O    0.319597  -0.029088  -0.027139  -0.029189   0.009939   0.002498
     9  H   -0.046133  -0.004810  -0.002876   0.005960  -0.000127  -0.000371
               7          8          9
     1  C   -0.039213   0.319597  -0.046133
     2  H    0.001587  -0.029088  -0.004810
     3  H    0.008127  -0.027139  -0.002876
     4  C    0.380149  -0.029189   0.005960
     5  H   -0.021624   0.009939  -0.000127
     6  H   -0.022512   0.002498  -0.000371
     7  F    8.851969   0.000468  -0.000048
     8  O    0.000468   7.867011   0.303881
     9  H   -0.000048   0.303881   0.453162
 Mulliken charges:
               1
     1  C   -0.093391
     2  H    0.094895
     3  H    0.105460
     4  C   -0.045267
     5  H    0.119487
     6  H    0.104335
     7  F   -0.158903
     8  O   -0.417978
     9  H    0.291362
 Sum of Mulliken charges =  -0.00000
 Mulliken charges with hydrogens summed into heavy atoms:
               1
     1  C    0.106964
     4  C    0.178555
     7  F   -0.158903
     8  O   -0.126616
 APT charges:
               1
     1  C    0.447902
     2  H   -0.079706
     3  H   -0.067711
     4  C    0.554177
     5  H   -0.033204
     6  H   -0.053801
     7  F   -0.455507
     8  O   -0.553614
     9  H    0.241463
 Sum of APT charges =   0.00000
 APT charges with hydrogens summed into heavy atoms:
               1
     1  C    0.300486
     4  C    0.467172
     7  F   -0.455507
     8  O   -0.312151
 Electronic spatial extent (au):  <R**2>=            323.8648
 Charge=             -0.0000 electrons
 Dipole moment (field-independent basis, Debye):
    X=             -1.5950    Y=              0.7314    Z=              0.9633  Tot=              2.0017
 Quadrupole moment (field-independent basis, Debye-Ang):
   XX=            -23.4602   YY=            -23.0096   ZZ=            -23.2722
   XY=             -3.6830   XZ=              0.1911   YZ=             -0.1975
 Traceless Quadrupole moment (field-independent basis, Debye-Ang):
   XX=             -0.2128   YY=              0.2378   ZZ=             -0.0249
   XY=             -3.6830   XZ=              0.1911   YZ=             -0.1975
 Octapole moment (field-independent basis, Debye-Ang**2):
  XXX=            -13.8794  YYY=              0.3938  ZZZ=             -1.6191  XYY=              2.3054
  XXY=              5.2541  XXZ=              0.4548  XZZ=              2.7218  YZZ=              0.2030
  YYZ=             -1.2392  XYZ=              0.2146
 Hexadecapole moment (field-independent basis, Debye-Ang**3):
 XXXX=           -209.8504 YYYY=            -59.2960 ZZZZ=            -40.0573 XXXY=            -10.4470
 XXXZ=              1.1326 YYYX=              2.8293 YYYZ=             -0.1509 ZZZX=             -1.7918
 ZZZY=             -0.4657 XXYY=            -50.8668 XXZZ=            -48.5895 YYZZ=            -15.8624
 XXYZ=             -0.8612 YYXZ=             -0.5122 ZZXY=              0.2163
 N-N= 1.279847703034D+02 E-N=-8.556810941314D+02  KE= 2.526722666595D+02
  Exact polarizability:      31.585      -0.823      27.458       0.479       0.234      25.881
 Approx polarizability:      39.872       0.933      37.424       0.016       0.511      35.299
 Calling FoFJK, ICntrl=    100127 FMM=F ISym2X=0 I1Cent= 0 IOpClX= 0 NMat=1 NMatS=1 NMatT=0.
 Full mass-weighted force constant matrix:
 Low frequencies ---  -91.9445  -15.2385   -2.9985   -0.0012   -0.0012    0.0009
 Low frequencies ---   25.8538  252.2115  351.7494
 ******    1 imaginary frequencies (negative Signs) ****** 
 Diagonal vibrational polarizability:
        7.8160774       6.2614401      55.3828408
 Harmonic frequencies (cm**-1), IR intensities (KM/Mole), Raman scattering
 activities (A**4/AMU), depolarization ratios for plane and unpolarized
 incident light, reduced masses (AMU), force constants (mDyne/A),
 and normal coordinates:
                      1                      2                      3
                      A                      A                      A
 Frequencies --    -91.9380               252.2003               351.6564
 Red. masses --      2.9181                 1.1172                 3.0344
 Frc consts  --      0.0145                 0.0419                 0.2211
 IR Inten    --      3.6502               111.8870                18.2836
  Atom  AN      X      Y      Z        X      Y      Z        X      Y      Z
     1   6     0.03   0.02  -0.19    -0.01   0.03  -0.01    -0.10   0.19   0.09
     2   1     0.23   0.25  -0.26    -0.05  -0.01  -0.01    -0.19   0.00   0.16
     3   1    -0.06  -0.15  -0.42    -0.02   0.06   0.02    -0.30   0.33   0.18
     4   6    -0.03  -0.04  -0.19    -0.01   0.03   0.01    -0.11   0.16  -0.10
     5   1     0.05   0.13  -0.43    -0.03   0.01   0.04    -0.31   0.33  -0.23
     6   1    -0.24  -0.29  -0.24    -0.03   0.05   0.03    -0.22  -0.06  -0.16
     7   9     0.07   0.04   0.16     0.01  -0.03   0.00     0.09  -0.13   0.00
     8   8    -0.07  -0.03   0.17     0.02   0.01  -0.06     0.12  -0.13   0.03
     9   1    -0.05  -0.01   0.26    -0.15  -0.38   0.90    -0.02  -0.26  -0.38
                      4                      5                      6
                      A                      A                      A
 Frequencies --    454.6046               833.1911              1005.6149
 Red. masses --      5.8403                 1.2883                 2.7540
 Frc consts  --      0.7111                 0.5269                 1.6409
 IR Inten    --      1.6059                 4.1139                32.4179
  Atom  AN      X      Y      Z        X      Y      Z        X      Y      Z
     1   6    -0.19  -0.10   0.02     0.02  -0.02  -0.08     0.15  -0.21   0.00
     2   1    -0.20  -0.32   0.12     0.21  -0.46   0.16     0.07  -0.17  -0.04
     3   1    -0.36   0.09   0.19    -0.21   0.33   0.23     0.14  -0.23  -0.02
     4   6     0.16   0.13  -0.00    -0.02   0.01  -0.09    -0.09   0.27   0.01
     5   1     0.28  -0.03   0.16     0.21  -0.31   0.25    -0.30   0.40  -0.09
     6   1     0.15   0.34   0.07    -0.21   0.47   0.13    -0.16   0.06  -0.06
     7   9     0.33  -0.05  -0.02    -0.04  -0.01   0.03    -0.03  -0.04   0.01
     8   8    -0.35   0.02  -0.02     0.04   0.02   0.04    -0.02  -0.04  -0.02
     9   1    -0.19   0.24  -0.03     0.06   0.04   0.00     0.37   0.50   0.23
                      7                      8                      9
                      A                      A                      A
 Frequencies --   1069.2893              1104.9775              1149.0920
 Red. masses --      5.7461                 4.2116                 1.7367
 Frc consts  --      3.8709                 3.0298                 1.3511
 IR Inten    --    137.1816                12.6667                 3.8208
  Atom  AN      X      Y      Z        X      Y      Z        X      Y      Z
     1   6     0.27   0.26  -0.02    -0.24  -0.13  -0.06     0.02  -0.01   0.17
     2   1     0.20  -0.16   0.14    -0.37   0.08  -0.16     0.36   0.46   0.01
     3   1    -0.16   0.52   0.17    -0.38  -0.12  -0.15     0.05  -0.37  -0.23
     4   6     0.31   0.06   0.01     0.29   0.14  -0.05     0.01   0.05  -0.16
     5   1     0.03   0.22  -0.13     0.34   0.21  -0.20     0.08  -0.24   0.19
     6   1     0.27  -0.24  -0.08     0.35  -0.17  -0.16     0.14   0.46  -0.03
     7   9    -0.19  -0.09   0.06    -0.15  -0.12   0.06    -0.03  -0.03   0.05
     8   8    -0.23  -0.16  -0.07     0.14   0.13   0.05    -0.02  -0.00  -0.05
     9   1    -0.08   0.07  -0.01     0.10   0.06   0.03    -0.15  -0.18  -0.09
                     10                     11                     12
                      A                      A                      A
 Frequencies --   1249.6360              1256.3141              1285.2605
 Red. masses --      1.1194                 1.1692                 1.0750
 Frc consts  --      1.0299                 1.0873                 1.0463
 IR Inten    --      3.9701                38.6094                13.4676
  Atom  AN      X      Y      Z        X      Y      Z        X      Y      Z
     1   6     0.00   0.00  -0.04     0.00   0.04   0.03     0.01   0.03   0.05
     2   1    -0.47  -0.11  -0.08    -0.40   0.17  -0.09    -0.36   0.14  -0.07
     3   1     0.66   0.04   0.21    -0.34   0.05  -0.08     0.31  -0.03   0.07
     4   6     0.00   0.01  -0.07    -0.00  -0.07  -0.05     0.01   0.01  -0.02
     5   1    -0.23  -0.07   0.11    -0.22  -0.18   0.15     0.62  -0.03  -0.16
     6   1     0.36   0.17  -0.09     0.16   0.12  -0.02    -0.52   0.04   0.11
     7   9    -0.01  -0.01   0.03     0.01   0.02   0.01    -0.01  -0.01  -0.02
     8   8    -0.01  -0.00   0.04     0.01  -0.04  -0.02    -0.01  -0.03   0.00
     9   1    -0.09  -0.11  -0.04     0.43   0.52   0.26     0.10   0.13   0.07
                     13                     14                     15
                      A                      A                      A
 Frequencies --   1399.6326              1469.1462              1508.9878
 Red. masses --      1.2644                 1.4624                 1.0830
 Frc consts  --      1.4594                 1.8597                 1.4529
 IR Inten    --      7.9039                 4.0179                 0.3784
  Atom  AN      X      Y      Z        X      Y      Z        X      Y      Z
     1   6    -0.06   0.05  -0.02     0.15  -0.06   0.01     0.02   0.03   0.01
     2   1     0.33  -0.06   0.10    -0.46   0.12  -0.19    -0.13  -0.30   0.12
     3   1     0.19   0.01   0.02    -0.49   0.14   0.02    -0.08  -0.20  -0.27
     4   6    -0.11   0.03   0.03    -0.10   0.03   0.01    -0.02  -0.06   0.02
     5   1     0.54  -0.09  -0.04     0.38  -0.11   0.03     0.07   0.35  -0.50
     6   1     0.59  -0.15  -0.19     0.30  -0.12  -0.14     0.22   0.54   0.18
     7   9     0.00  -0.02   0.01     0.00  -0.01   0.00    -0.00  -0.01   0.00
     8   8     0.01  -0.04  -0.01    -0.01   0.04   0.01     0.00   0.01   0.00
     9   1     0.20   0.23   0.12    -0.24  -0.28  -0.15    -0.02  -0.02  -0.01
                     16                     17                     18
                      A                      A                      A
 Frequencies --   1525.2393              2984.4066              3018.8354
 Red. masses --      1.0847                 1.0552                 1.1035
 Frc consts  --      1.4867                 5.5372                 5.9250
 IR Inten    --      5.7875                45.4121                32.9783
  Atom  AN      X      Y      Z        X      Y      Z        X      Y      Z
     1   6    -0.02  -0.06  -0.02    -0.00  -0.07  -0.01     0.02   0.01  -0.09
     2   1     0.20   0.52  -0.22    -0.10   0.24   0.59    -0.13   0.30   0.65
     3   1    -0.00   0.40   0.48     0.17   0.54  -0.51    -0.12  -0.45   0.39
     4   6    -0.01  -0.04   0.02    -0.00   0.00   0.00     0.00  -0.01   0.02
     5   1    -0.03   0.22  -0.29    -0.01  -0.03  -0.02     0.01   0.05   0.05
     6   1     0.11   0.30   0.11    -0.00   0.00  -0.01    -0.06   0.10  -0.27
     7   9    -0.00  -0.00   0.00     0.00   0.00  -0.00    -0.00  -0.00   0.00
     8   8    -0.00  -0.01  -0.00    -0.00  -0.00  -0.00    -0.00   0.00   0.00
     9   1     0.03   0.03   0.01    -0.00  -0.01  -0.00     0.00  -0.00   0.00
                     19                     20                     21
                      A                      A                      A
 Frequencies --   3035.8597              3087.1015              3834.6800
 Red. masses --      1.0587                 1.1099                 1.0664
 Frc consts  --      5.7491                 6.2323                 9.2389
 IR Inten    --     39.3304                47.2847                24.3985
  Atom  AN      X      Y      Z        X      Y      Z        X      Y      Z
     1   6     0.01   0.00  -0.02     0.00  -0.00  -0.02     0.00   0.00   0.00
     2   1    -0.03   0.07   0.15    -0.03   0.06   0.13     0.00  -0.00  -0.00
     3   1    -0.03  -0.13   0.11    -0.01  -0.06   0.05     0.00   0.00   0.00
     4   6    -0.00   0.06  -0.01    -0.02  -0.02  -0.09     0.00   0.00   0.00
     5   1    -0.15  -0.55  -0.46     0.12   0.52   0.40    -0.00  -0.00  -0.00
     6   1     0.13  -0.20   0.59     0.15  -0.25   0.66    -0.00   0.00  -0.00
     7   9     0.00   0.00  -0.00     0.00   0.00   0.00     0.00  -0.00  -0.00
     8   8    -0.00  -0.00   0.00    -0.00   0.00   0.00    -0.05   0.03   0.00
     9   1    -0.00  -0.00  -0.00     0.00  -0.00   0.00     0.82  -0.57  -0.08

 -------------------
 - Thermochemistry -
 -------------------
 Temperature   298.150 Kelvin.  Pressure   1.00000 Atm.
 Atom     1 has atomic number  6 and mass  12.00000
 Atom     2 has atomic number  1 and mass   1.00783
 Atom     3 has atomic number  1 and mass   1.00783
 Atom     4 has atomic number  6 and mass  12.00000
 Atom     5 has atomic number  1 and mass   1.00783
 Atom     6 has atomic number  1 and mass   1.00783
 Atom     7 has atomic number  9 and mass  18.99840
 Atom     8 has atomic number  8 and mass  15.99491
 Atom     9 has atomic number  1 and mass   1.00783
 Molecular mass:    64.03244 amu.
 Principal axes and moments of inertia in atomic units:
                           1         2         3
     Eigenvalues --    66.52138 453.35566 473.71920
           X            0.99949  -0.03118   0.00729
           Y            0.03121   0.99950  -0.00434
           Z           -0.00715   0.00457   0.99996
 This molecule is an asymmetric top.
 Rotational symmetry number  1.
 Rotational temperatures (Kelvin)      1.30205     0.19105     0.18284
 Rotational constants (GHZ):          27.13024     3.98085     3.80973
    1 imaginary frequencies ignored.
 Zero-point vibrational energy     190659.2 (Joules/Mol)
                                   45.56864 (Kcal/Mol)
 Warning -- explicit consideration of   3 degrees of freedom as
           vibrations may cause significant error
 Vibrational temperatures:    362.86   505.96   654.07  1198.78  1446.86
          (Kelvin)           1538.47  1589.82  1653.29  1797.95  1807.56
                             1849.20  2013.76  2113.77  2171.10  2194.48
                             4293.90  4343.43  4367.93  4441.65  5517.25
 
 Zero-point correction=                           0.072618 (Hartree/Particle)
 Thermal correction to Energy=                    0.076793
 Thermal correction to Enthalpy=                  0.077737
 Thermal correction to Gibbs Free Energy=         0.045988
 Sum of electronic and zero-point Energies=           -254.205158
 Sum of electronic and thermal Energies=              -254.200983
 Sum of electronic and thermal Enthalpies=            -254.200039
 Sum of electronic and thermal Free Energies=         -254.231789
 
                     E (Thermal)             CV                S
                      KCal/Mol        Cal/Mol-Kelvin    Cal/Mol-Kelvin
 Total                   48.189             13.268             66.822
 Electronic               0.000              0.000              0.000
 Translational            0.889              2.981             38.389
 Rotational               0.889              2.981             24.172
 Vibrational             46.411              7.306              4.261
 Vibration     1          0.664              1.759              1.715
 Vibration     2          0.728              1.572              1.159
 Vibration     3          0.813              1.351              0.782
                       Q            Log10(Q)             Ln(Q)
 Total Bot       0.703079D-21        -21.152996        -48.706572
 Total V=0       0.177439D+13         12.249050         28.204479
 Vib (Bot)       0.815914D-33        -33.088356        -76.188755
 Vib (Bot)    1  0.773065D+00         -0.111784         -0.257392
 Vib (Bot)    2  0.524093D+00         -0.280592         -0.646086
 Vib (Bot)    3  0.375809D+00         -0.425033         -0.978674
 Vib (V=0)       0.205916D+01          0.313689          0.722296
 Vib (V=0)    1  0.142067D+01          0.152493          0.351127
 Vib (V=0)    2  0.122434D+01          0.087903          0.202405
 Vib (V=0)    3  0.112549D+01          0.051340          0.118215
 Electronic      0.100000D+01          0.000000          0.000000
 Translational   0.201397D+08          7.304054         16.818206
 Rotational      0.427864D+05          4.631306         10.663977
 ***** Axes restored to original set *****
 -------------------------------------------------------------------
 Center     Atomic                   Forces (Hartrees/Bohr)
 Number     Number              X              Y              Z
 -------------------------------------------------------------------
      1        6           0.000880679    0.000899871   -0.002133936
      2        1          -0.000002401   -0.000003516   -0.000000362
      3        1          -0.000046941    0.000016917    0.000027963
      4        6          -0.000729310   -0.001031843   -0.002232997
      5        1          -0.000023196    0.000038337    0.000031042
      6        1           0.000015953   -0.000042201    0.000001940
      7        9           0.000486311    0.000676726    0.002188992
      8        8          -0.000562666   -0.000533032    0.002126278
      9        1          -0.000018431   -0.000021259   -0.000008919
 -------------------------------------------------------------------
 Cartesian Forces:  Max     0.002232997 RMS     0.000929735

 GradGradGradGradGradGradGradGradGradGradGradGradGradGradGradGradGradGrad
 Berny optimization.
 Search for a local minimum.
 Step number   1 out of a maximum of    2
 All quantities printed in internal units (Hartrees-Bohrs-Radians)
 Second derivative matrix not updated -- analytic derivatives used.
 ITU=  0
     Eigenvalues ---   -0.00115   0.00386   0.01884   0.03280   0.05378
     Eigenvalues ---    0.06787   0.07626   0.08201   0.11745   0.11913
     Eigenvalues ---    0.15130   0.16330   0.21028   0.30566   0.46896
     Eigenvalues ---    0.65109   0.72061   0.76676   0.82022   0.83489
     Eigenvalues ---    1.04221
 Eigenvalue     1 is  -1.15D-03 should be greater than     0.000000 Eigenvector:
                          Z3        Z5        Z7        Y6        X6
   1                    0.39051   0.38718  -0.30611   0.29388   0.27308
                          Y2        Z9        Z8        Z2        X2
   1                   -0.26978  -0.24403  -0.23404   0.22717  -0.22146
 Quadratic step=1.729D+00 exceeds max=3.000D-01 adjusted using Lamda=-5.643D-03.
 Angle between NR and scaled steps=   8.49 degrees.
 Angle between quadratic step and forces=  60.89 degrees.
 Linear search not attempted -- first point.
 B after Tr=     0.001834    0.002197    0.027527
         Rot=    0.999997   -0.000223    0.001633   -0.001747 Ang=  -0.28 deg.
 Variable       Old X    -DE/DX   Delta X   Delta X   Delta X     New X
                                 (Linear)    (Quad)   (Total)
    X1       -1.09558   0.00088   0.00000   0.00761   0.00513  -1.09045
    Y1        0.91486   0.00090   0.00000   0.00462   0.00286   0.91772
    Z1        0.39076  -0.00213   0.00000  -0.04749  -0.02311   0.36765
    X2       -1.41936  -0.00000   0.00000   0.07654   0.06480  -1.35456
    Y2        1.76863  -0.00000   0.00000   0.07000   0.06650   1.83513
    Z2        2.25688  -0.00000   0.00000  -0.06380  -0.03986   2.21702
    X3       -0.62632  -0.00005   0.00000  -0.03053  -0.03364  -0.65997
    Y3        2.44381   0.00002   0.00000  -0.04289  -0.04252   2.40129
    Z3       -0.93886   0.00003   0.00000  -0.11421  -0.08776  -1.02662
    X4        1.17365  -0.00073   0.00000  -0.00797  -0.00431   1.16934
    Y4       -0.87798  -0.00103   0.00000  -0.01038  -0.00428  -0.88226
    Z4        0.43630  -0.00223   0.00000  -0.04603  -0.01510   0.42120
    X5        0.75135  -0.00002   0.00000   0.03197   0.04536   0.79671
    Y5       -2.47718   0.00004   0.00000   0.03624   0.04161  -2.43557
    Z5       -0.81120   0.00003   0.00000  -0.11816  -0.08915  -0.90035
    X6        1.57799   0.00002   0.00000  -0.08009  -0.07985   1.49814
    Y6       -1.59640  -0.00004   0.00000  -0.08132  -0.07491  -1.67130
    Z6        2.33524   0.00000   0.00000  -0.05646  -0.02480   2.31045
    X7        3.29771   0.00049   0.00000   0.02880   0.03045   3.32816
    Y7        0.34562   0.00068   0.00000   0.02820   0.04217   0.38780
    Z7       -0.45179   0.00219   0.00000   0.09740   0.13596  -0.31584
    X8       -3.21722  -0.00056   0.00000  -0.02729  -0.02248  -3.23970
    Y8       -0.50210  -0.00053   0.00000  -0.02416  -0.03314  -0.53524
    Z8       -0.43187   0.00213   0.00000   0.09562   0.11232  -0.31955
    X9       -4.69376  -0.00002   0.00000  -0.00624  -0.00545  -4.69921
    Y9        0.54606  -0.00002   0.00000   0.01581   0.00171   0.54777
    Z9       -0.28328  -0.00001   0.00000   0.01907   0.03150  -0.25179
         Item               Value     Threshold  Converged?
 Maximum Force            0.002233     0.000450     NO 
 RMS     Force            0.000930     0.000300     NO 
 Maximum Displacement     0.135955     0.001800     NO 
 RMS     Displacement     0.055263     0.001200     NO 
 Predicted change in Energy=-7.042940D-04
 GradGradGradGradGradGradGradGradGradGradGradGradGradGradGradGradGradGrad


 ----------------------------------------------------------------------

 Electric dipole moment (input orientation):
 (Debye = 10**-18 statcoulomb cm , SI units = C m)
                  (au)            (Debye)         (10**-30 SI)
   Tot        0.787537D+00      0.200172D+01      0.667702D+01
   x         -0.627524D+00     -0.159501D+01     -0.532037D+01
   y          0.287759D+00      0.731410D+00      0.243972D+01
   z          0.378977D+00      0.963264D+00      0.321310D+01

 Dipole polarizability, Alpha (input orientation).
 (esu units = cm**3 , SI units = C**2 m**2 J**-1)
 Alpha(0;0):
               (au)            (10**-24 esu)      (10**-40 SI)
   iso        0.283078D+02      0.419479D+01      0.466733D+01
   aniso      0.537641D+01      0.796701D+00      0.886450D+00
   xx         0.315845D+02      0.468035D+01      0.520759D+01
   yx        -0.822922D+00     -0.121944D+00     -0.135681D+00
   yy         0.274578D+02      0.406883D+01      0.452719D+01
   zx         0.478927D+00      0.709696D-01      0.789643D-01
   zy         0.233549D+00      0.346084D-01      0.385070D-01
   zz         0.258811D+02      0.383519D+01      0.426722D+01

 ----------------------------------------------------------------------

 Dipole orientation:
     6         -0.13477270          0.47427056          1.39529812
     1          1.33501180          0.50558180          2.86326403
     1         -0.62559318          2.44347982          0.94021658
     6          0.84564206         -0.72756874         -1.04603980
     1         -0.70401568         -1.80980743         -1.89419124
     1          2.44856279         -1.99560860         -0.71692017
     9          1.59209655          1.12775281         -2.71879650
     8         -2.28098373         -0.93142276          2.17224711
     1         -2.80018668         -0.32226086          3.80327745

 Electric dipole moment (dipole orientation):
 (Debye = 10**-18 statcoulomb cm , SI units = C m)
                  (au)            (Debye)         (10**-30 SI)
   Tot        0.787537D+00      0.200172D+01      0.667702D+01
   x          0.000000D+00      0.000000D+00      0.000000D+00
   y          0.000000D+00      0.000000D+00      0.000000D+00
   z          0.787537D+00      0.200172D+01      0.667702D+01

 Dipole polarizability, Alpha (dipole orientation).
 (esu units = cm**3 , SI units = C**2 m**2 J**-1)
 Alpha(0;0):
               (au)            (10**-24 esu)      (10**-40 SI)
   iso        0.283078D+02      0.419479D+01      0.466733D+01
   aniso      0.537641D+01      0.796701D+00      0.886450D+00
   xx         0.281283D+02      0.416818D+01      0.463773D+01
   yx         0.590497D+00      0.875027D-01      0.973599D-01
   yy         0.268883D+02      0.398444D+01      0.443329D+01
   zx        -0.260855D+01     -0.386547D+00     -0.430092D+00
   zy         0.424231D+00      0.628645D-01      0.699462D-01
   zz         0.299069D+02      0.443174D+01      0.493098D+01

 ----------------------------------------------------------------------
 Unable to Open any file for archive entry.
 1\1\GINC-COMPUTE-2-0\Freq\RB3LYP\6-31G(2df,p)\C2H5F1O1\JINGDAN2\05-Dec
 -2024\0\\# freq b3lyp/6-31g(2df,p)\\energy: -15.614184499692 gnorm: 0.
 000439253721 xtb: 6.6.1 (8d0f1dd)\\0,1\C,-0.579755,0.484123,0.206781\H
 ,-0.751092,0.93592,1.19429\H,-0.331436,1.293211,-0.496823\C,0.62107,-0
 .464608,0.230878\H,0.397595,-1.310868,-0.429271\H,0.835037,-0.844777,1
 .235756\F,1.745072,0.182896,-0.239079\O,-1.702477,-0.265701,-0.228536\
 H,-2.483831,0.288963,-0.149906\\Version=ES64L-G16RevC.01\State=1-A\HF=
 -254.2777765\RMSD=7.453e-09\RMSF=9.297e-04\ZeroPoint=0.0726182\Thermal
 =0.0767933\ETot=-254.2009832\HTot=-254.2000391\GTot=-254.2317885\Dipol
 e=-0.6275235,0.2877587,0.3789771\DipoleDeriv=0.6072183,0.198711,0.0662
 855,0.2821594,0.3250544,0.0561199,0.0847846,0.0604332,0.4114336,-0.049
 5635,0.0306959,0.0244475,-0.0153372,-0.0287437,-0.0790823,0.0104316,-0
 .1099697,-0.16081,-0.0424349,-0.0459964,0.0200916,-0.0638188,-0.097886
 4,0.0706722,0.0212806,0.1071552,-0.062811,0.7711179,0.1435037,-0.10550
 5,0.2042519,0.4353691,-0.0870833,-0.1300776,-0.0777683,0.4560452,0.001
 0508,-0.0273114,-0.0018639,-0.0327675,-0.0663871,-0.0581135,-0.0058979
 ,-0.095024,-0.0342764,-0.0330152,0.0369486,-0.041848,0.0074998,0.00189
 5,0.0488155,-0.0308794,0.0877279,-0.1302823,-0.7220908,-0.1610436,0.14
 05933,-0.2129308,-0.3506248,0.0899303,0.1729264,0.0847912,-0.2938042,-
 0.7460275,-0.2394863,-0.1060677,-0.2571513,-0.4076221,-0.0046558,-0.12
 60182,-0.0190217,-0.5071937,0.213745,0.0639785,0.0038667,0.0880944,0.1
 889457,-0.036603,0.0034501,-0.0383238,0.3216989\Polar=31.5845379,-0.82
 29217,27.4578377,0.4789265,0.233549,25.881112\Quadrupole=-0.1582349,0.
 1767646,-0.0185296,-2.7382325,0.1420525,-0.1468057\PG=C01 [X(C2H5F1O1)
 ]\NImag=1\\0.48010770,-0.00432011,0.53358489,-0.03996507,-0.00202414,0
 .57348226,-0.06043834,0.01950695,0.04596736,0.06715432,0.01726561,-0.0
 8585348,-0.07847254,-0.01520267,0.09543618,0.04504438,-0.08264683,-0.2
 5045424,-0.03981869,0.09663697,0.27032356,-0.05576837,-0.02784068,0.03
 133957,0.00205011,-0.00388606,0.00622429,0.06946842,-0.02905490,-0.172
 63241,0.11311815,0.00375195,0.01012335,-0.00814395,0.04357883,0.194499
 37,0.03154590,0.11660027,-0.16390102,0.00500923,0.02092971,-0.01961010
 ,-0.03331048,-0.12552388,0.16752149,-0.12231474,0.06395547,-0.00602207
 ,-0.00165095,0.00398120,-0.00199774,0.00249544,-0.00214066,0.00117860,
 0.47498848,0.06669017,-0.13567520,0.00153749,0.01186533,-0.00869570,0.
 00362878,0.01853939,-0.01841655,0.00135660,0.01444289,0.53892098,-0.00
 042408,-0.00131284,-0.08312814,0.02286337,-0.01847339,0.00195097,-0.01
 668956,0.01919654,-0.00161624,0.04291642,0.01163606,0.60078287,0.00282
 967,0.01934804,0.01482395,-0.00331939,0.00221294,-0.00055156,-0.000380
 05,0.00026792,-0.00014576,-0.05496386,-0.02763039,-0.02590446,0.070402
 31,-0.00042359,-0.01807732,-0.01809390,0.00278761,-0.00223739,0.000982
 48,0.00009525,0.00022123,0.00030161,-0.03046036,-0.19502810,-0.1173855
 2,0.04399126,0.21710699,-0.00097376,0.00062711,0.00070859,-0.00009042,
 -0.00017255,0.00099673,0.00014473,-0.00032559,0.00003359,-0.03057289,-
 0.12418621,-0.15843659,0.02882602,0.13006694,0.15847052,-0.00169713,0.
 01040327,-0.02245431,0.00074363,-0.00067473,0.00036403,-0.00349438,0.0
 0273162,-0.00019357,-0.06420167,0.02015380,-0.06155894,0.00230603,0.00
 357747,-0.00460939,0.07265918,0.00583577,-0.00597668,0.01871685,-0.000
 81012,0.00114586,-0.00025656,0.00208572,-0.00222680,0.00034262,0.01850
 297,-0.07770332,0.06845545,-0.00449767,0.00980002,-0.02249311,-0.01613
 078,0.08371027,0.00194968,-0.00370881,0.00160398,-0.00023248,0.0002482
 3,0.00157090,0.00048098,-0.00090438,0.00099212,-0.05564528,0.07408400,
 -0.26785458,-0.00630599,0.00659319,-0.01676168,0.05034373,-0.08708055,
 0.28898873,-0.03682322,-0.02229255,0.01470887,-0.00217108,0.00222629,0
 .00137635,0.00176356,-0.00257584,-0.00055970,-0.19540975,-0.07959746,0
 .05184367,-0.01869429,-0.01621315,0.00687821,-0.00520206,-0.00712418,0
 .01110286,0.26734587,0.00805779,0.01013728,-0.00299705,-0.00056798,0.0
 0033409,-0.00048638,-0.00049253,0.00405520,-0.00151483,-0.07829510,-0.
 11373802,0.03328880,-0.03358610,-0.01495072,0.01560938,-0.01980831,-0.
 00856564,0.01031181,0.12066108,0.12223779,0.00594067,0.00402848,0.0017
 8673,-0.00094393,-0.00054078,0.00051928,-0.00041304,-0.00154742,0.0013
 7357,0.05546337,0.03472114,-0.09240941,-0.01145137,-0.00339428,0.01421
 200,0.03711855,0.02177120,-0.00890990,-0.08575816,-0.05412817,0.083316
 23,-0.17635070,-0.08142301,-0.04224617,-0.00498122,-0.00665326,-0.0102
 3574,-0.01736248,-0.01730694,-0.00453168,-0.03557487,-0.02004092,-0.01
 128228,0.00167954,-0.00247330,0.00047415,-0.00085613,0.00179648,-0.001
 50817,-0.00923151,0.00365771,0.00012081,0.58668050,-0.03594490,-0.1348
 6048,-0.03094407,-0.02079051,-0.01042106,-0.00890028,-0.03120499,-0.01
 561206,-0.01258583,0.01129112,0.01318160,0.00632212,0.00000775,0.00245
 999,0.00038885,-0.00018045,-0.00050111,0.00035731,0.00605471,-0.000100
 00,-0.00150392,-0.13176880,0.35212650,-0.02773690,-0.03877892,-0.07853
 005,-0.03245558,-0.02098902,-0.00599331,0.01150487,0.00492436,0.014724
 53,-0.00390300,-0.00000405,0.00076883,0.00076661,0.00067914,0.00057308
 ,0.00080498,-0.00001407,0.00034893,0.00106269,-0.00062917,0.00008636,0
 .02960709,0.08931333,0.07990269,-0.02954487,0.02266260,0.00384787,0.00
 261292,0.00073069,-0.00040533,0.00122777,0.00074801,0.00100746,-0.0033
 6808,-0.00442282,-0.00176413,0.00014004,-0.00088119,-0.00007666,-0.000
 25747,0.00034181,-0.00018534,-0.00157752,0.00037345,-0.00007689,-0.344
 00312,0.20253606,0.02034924,0.37477033,-0.02810584,0.00935339,-0.00084
 078,-0.00054056,0.00016814,-0.00081423,-0.00087494,-0.00001132,0.00009
 373,-0.00127753,-0.00284568,-0.00172722,-0.00011374,0.00070529,0.00048
 518,-0.00007189,0.00031740,0.00009922,-0.00113891,0.00059003,0.0005937
 4,0.25421203,-0.20627339,-0.03450160,-0.22208861,0.19799614,-0.0153808
 4,0.00721568,-0.00156811,-0.00029885,0.00083338,0.00069620,0.00071864,
 -0.00079384,0.00048204,-0.00141741,-0.00277380,-0.00005772,-0.00005744
 ,0.00025034,0.00020377,0.00018493,0.00055817,0.00002150,-0.00065479,0.
 00054560,0.00002513,0.03960199,-0.04244750,-0.01188106,-0.02269623,0.0
 3661197,0.01207825\\-0.00088068,-0.00089987,0.00213394,0.00000240,0.00
 000352,0.00000036,0.00004694,-0.00001692,-0.00002796,0.00072931,0.0010
 3184,0.00223300,0.00002320,-0.00003834,-0.00003104,-0.00001595,0.00004
 220,-0.00000194,-0.00048631,-0.00067673,-0.00218899,0.00056267,0.00053
 303,-0.00212628,0.00001843,0.00002126,0.00000892\\\@
 The archive entry for this job was punched.


 THERE ONCE WAS A GIRL NAMED IRENE,
 WHO LIVED ON DISTILLED KEROSENE,
      BUT SHE STARTED ABSORBIN'
      A NEW HYDROCARBON,
 AND SINCE THEN HAS NEVER BENZENE.
 Job cpu time:       0 days  0 hours  7 minutes 10.8 seconds.
 Elapsed time:       0 days  0 hours  0 minutes 54.9 seconds.
 File lengths (MBytes):  RWF=     21 Int=      0 D2E=      0 Chk=      2 Scr=      1
 Normal termination of Gaussian 16 at Thu Dec  5 18:23:59 2024.
