 Entering Gaussian System, Link 0=g16
 Input=rotation_std11.gjf
 Output=rotation_std11.log
 Initial command:
 /share/apps/gaussian/g16/l1.exe "/scratch/jingdan2/247438/Gau-338974.inp" -scrdir="/scratch/jingdan2/247438/"
 Entering Link 1 = /share/apps/gaussian/g16/l1.exe PID=    338980.
  
 Copyright (c) 1988-2019, Gaussian, Inc.  All Rights Reserved.
  
 This is part of the Gaussian(R) 16 program.  It is based on
 the Gaussian(R) 09 system (copyright 2009, Gaussian, Inc.),
 the Gaussian(R) 03 system (copyright 2003, Gaussian, Inc.),
 the Gaussian(R) 98 system (copyright 1998, Gaussian, Inc.),
 the Gaussian(R) 94 system (copyright 1995, Gaussian, Inc.),
 the Gaussian 92(TM) system (copyright 1992, Gaussian, Inc.),
 the Gaussian 90(TM) system (copyright 1990, Gaussian, Inc.),
 the Gaussian 88(TM) system (copyright 1988, Gaussian, Inc.),
 the Gaussian 86(TM) system (copyright 1986, Carnegie Mellon
 University), and the Gaussian 82(TM) system (copyright 1983,
 Carnegie Mellon University). Gaussian is a federally registered
 trademark of Gaussian, Inc.
  
 This software contains proprietary and confidential information,
 including trade secrets, belonging to Gaussian, Inc.
  
 This software is provided under written license and may be
 used, copied, transmitted, or stored only in accord with that
 written license.
  
 The following legend is applicable only to US Government
 contracts under FAR:
  
                    RESTRICTED RIGHTS LEGEND
  
 Use, reproduction and disclosure by the US Government is
 subject to restrictions as set forth in subparagraphs (a)
 and (c) of the Commercial Computer Software - Restricted
 Rights clause in FAR 52.227-19.
  
 Gaussian, Inc.
 340 Quinnipiac St., Bldg. 40, Wallingford CT 06492
  
  
 ---------------------------------------------------------------
 Warning -- This program may not be used in any manner that
 competes with the business of Gaussian, Inc. or will provide
 assistance to any competitor of Gaussian, Inc.  The licensee
 of this program is prohibited from giving any competitor of
 Gaussian, Inc. access to this program.  By using this program,
 the user acknowledges that Gaussian, Inc. is engaged in the
 business of creating and licensing software in the field of
 computational chemistry and represents and warrants to the
 licensee that it is not a competitor of Gaussian, Inc. and that
 it will not use this program in any manner prohibited above.
 ---------------------------------------------------------------
  

 Cite this work as:
 Gaussian 16, Revision C.01,
 M. J. Frisch, G. W. Trucks, H. B. Schlegel, G. E. Scuseria, 
 M. A. Robb, J. R. Cheeseman, G. Scalmani, V. Barone, 
 G. A. Petersson, H. Nakatsuji, X. Li, M. Caricato, A. V. Marenich, 
 J. Bloino, B. G. Janesko, R. Gomperts, B. Mennucci, H. P. Hratchian, 
 J. V. Ortiz, A. F. Izmaylov, J. L. Sonnenberg, D. Williams-Young, 
 F. Ding, F. Lipparini, F. Egidi, J. Goings, B. Peng, A. Petrone, 
 T. Henderson, D. Ranasinghe, V. G. Zakrzewski, J. Gao, N. Rega, 
 G. Zheng, W. Liang, M. Hada, M. Ehara, K. Toyota, R. Fukuda, 
 J. Hasegawa, M. Ishida, T. Nakajima, Y. Honda, O. Kitao, H. Nakai, 
 T. Vreven, K. Throssell, J. A. Montgomery, Jr., J. E. Peralta, 
 F. Ogliaro, M. J. Bearpark, J. J. Heyd, E. N. Brothers, K. N. Kudin, 
 V. N. Staroverov, T. A. Keith, R. Kobayashi, J. Normand, 
 K. Raghavachari, A. P. Rendell, J. C. Burant, S. S. Iyengar, 
 J. Tomasi, M. Cossi, J. M. Millam, M. Klene, C. Adamo, R. Cammi, 
 J. W. Ochterski, R. L. Martin, K. Morokuma, O. Farkas, 
 J. B. Foresman, and D. J. Fox, Gaussian, Inc., Wallingford CT, 2019.
 
 ******************************************
 Gaussian 16:  ES64L-G16RevC.01  3-Jul-2019
                 5-Dec-2024 
 ******************************************
 %nprocshared=8
 Will use up to    8 processors via shared memory.
 %mem=8GB
 -------------------------
 # freq b3lyp/6-31g(2df,p)
 -------------------------
 1/10=4,30=1,38=1/1,3;
 2/12=2,17=6,18=5,40=1/2;
 3/5=1,6=6,7=104,11=2,25=1,30=1,71=2,74=-5,140=1/1,2,3;
 4//1;
 5/5=2,38=5,98=1/2;
 8/6=4,10=90,11=11/1;
 11/6=1,8=1,9=11,15=111,16=1/1,2,10;
 10/6=1/2;
 6/7=2,8=2,9=2,10=2,28=1/1;
 7/8=1,10=1,25=1/1,2,3,16;
 1/10=4,30=1/3;
 99//99;
 -------------------------------------------------------------------
 energy: -15.614184499692 gnorm: 0.000439253721 xtb: 6.6.1 (8d0f1dd)
 -------------------------------------------------------------------
 Symbolic Z-matrix:
 Charge =  0 Multiplicity = 1
 C                    -0.64779   0.51026   0.3289 
 H                    -0.50311   0.37144   1.4105 
 H                    -1.07986   1.51285   0.1717 
 C                     0.70968   0.46507  -0.34216 
 H                     1.23235   1.41835  -0.19155 
 H                     0.58508   0.2885   -1.41721 
 F                     1.4849   -0.54192   0.19163 
 O                    -1.46406  -0.49756  -0.23935 
 H                    -2.2575   -0.58535   0.29621 
 

 GradGradGradGradGradGradGradGradGradGradGradGradGradGradGradGradGradGrad
 Berny optimization.
 Initialization pass.
 Trust Radius=3.00D-01 FncErr=1.00D-07 GrdErr=1.00D-07 EigMax=2.50D+02 EigMin=1.00D-04
 Number of steps in this run=      2 maximum allowed number of steps=      2.
 GradGradGradGradGradGradGradGradGradGradGradGradGradGradGradGradGradGrad

                          Input orientation:                          
 ---------------------------------------------------------------------
 Center     Atomic      Atomic             Coordinates (Angstroms)
 Number     Number       Type             X           Y           Z
 ---------------------------------------------------------------------
      1          6           0       -0.647785    0.510260    0.328904
      2          1           0       -0.503110    0.371440    1.410503
      3          1           0       -1.079859    1.512848    0.171696
      4          6           0        0.709684    0.465071   -0.342162
      5          1           0        1.232351    1.418348   -0.191546
      6          1           0        0.585081    0.288500   -1.417206
      7          9           0        1.484903   -0.541923    0.191629
      8          8           0       -1.464061   -0.497559   -0.239346
      9          1           0       -2.257504   -0.585349    0.296207
 ---------------------------------------------------------------------
                    Distance matrix (angstroms):
                    1          2          3          4          5
     1  C    0.000000
     2  H    1.100026   0.000000
     3  H    1.102989   1.780476   0.000000
     4  C    1.514957   2.133418   2.136434   0.000000
     5  H    2.151837   2.583486   2.342475   1.097544   0.000000
     6  H    2.148962   3.031003   2.606849   1.096550   1.788227
     7  F    2.382077   2.504412   3.286409   1.378381   2.013273
     8  O    1.415950   2.097758   2.087655   2.379579   3.308115
     9  H    1.947466   2.288012   2.409311   3.211713   4.053615
                    6          7          8          9
     6  H    0.000000
     7  F    2.021789   0.000000
     8  O    2.490828   2.980620   0.000000
     9  H    3.432155   3.744120   0.961289   0.000000
 Stoichiometry    C2H5FO
 Framework group  C1[X(C2H5FO)]
 Deg. of freedom    21
 Full point group                 C1      NOp   1
 Largest Abelian subgroup         C1      NOp   1
 Largest concise Abelian subgroup C1      NOp   1
                         Standard orientation:                         
 ---------------------------------------------------------------------
 Center     Atomic      Atomic             Coordinates (Angstroms)
 Number     Number       Type             X           Y           Z
 ---------------------------------------------------------------------
      1          6           0        0.647785    0.510260   -0.328904
      2          1           0        0.503110    0.371440   -1.410503
      3          1           0        1.079859    1.512848   -0.171696
      4          6           0       -0.709684    0.465071    0.342162
      5          1           0       -1.232351    1.418348    0.191546
      6          1           0       -0.585081    0.288500    1.417206
      7          9           0       -1.484903   -0.541923   -0.191629
      8          8           0        1.464061   -0.497559    0.239346
      9          1           0        2.257504   -0.585349   -0.296207
 ---------------------------------------------------------------------
 Rotational constants (GHZ):          17.8459845           4.8565842           4.3729439
 Standard basis: 6-31G(2df,p) (6D, 7F)
 There are   149 symmetry adapted cartesian basis functions of A   symmetry.
 There are   137 symmetry adapted basis functions of A   symmetry.
   137 basis functions,   211 primitive gaussians,   149 cartesian basis functions
    17 alpha electrons       17 beta electrons
       nuclear repulsion energy       129.7082452741 Hartrees.
 NAtoms=    9 NActive=    9 NUniq=    9 SFac= 1.00D+00 NAtFMM=   60 NAOKFM=F Big=F
 Integral buffers will be    131072 words long.
 Raffenetti 2 integral format.
 Two-electron integral symmetry is turned on.
 One-electron integrals computed using PRISM.
 NBasis=   137 RedAO= T EigKep=  1.21D-03  NBF=   137
 NBsUse=   137 1.00D-06 EigRej= -1.00D+00 NBFU=   137
 ExpMin= 1.61D-01 ExpMax= 7.00D+03 ExpMxC= 1.05D+03 IAcc=3 IRadAn=         5 AccDes= 0.00D+00
 Harris functional with IExCor=  402 and IRadAn=       5 diagonalized for initial guess.
 HarFok:  IExCor=  402 AccDes= 0.00D+00 IRadAn=         5 IDoV= 1 UseB2=F ITyADJ=14
 ICtDFT=  3500011 ScaDFX=  1.000000  1.000000  1.000000  1.000000
 FoFCou: FMM=F IPFlag=           0 FMFlag=      100000 FMFlg1=           0
         NFxFlg=           0 DoJE=T BraDBF=F KetDBF=T FulRan=T
         wScrn=  0.000000 ICntrl=       500 IOpCl=  0 I1Cent=   200000004 NGrid=           0
         NMat0=    1 NMatS0=      1 NMatT0=    0 NMatD0=    1 NMtDS0=    0 NMtDT0=    0
 Petite list used in FoFCou.
 Keep R1 ints in memory in canonical form, NReq=52495207.
 Requested convergence on RMS density matrix=1.00D-08 within 128 cycles.
 Requested convergence on MAX density matrix=1.00D-06.
 Requested convergence on             energy=1.00D-06.
 No special actions if energy rises.
 Integral accuracy reduced to 1.0D-05 until final iterations.
 Initial convergence to 1.0D-05 achieved.  Increase integral accuracy.
 SCF Done:  E(RB3LYP) =  -254.280795182     A.U. after   12 cycles
            NFock= 12  Conv=0.34D-08     -V/T= 2.0063
 DoSCS=F DFT=T ScalE2(SS,OS)=  1.000000  1.000000
 Range of M.O.s used for correlation:     1   137
 NBasis=   137 NAE=    17 NBE=    17 NFC=     0 NFV=     0
 NROrb=    137 NOA=    17 NOB=    17 NVA=   120 NVB=   120

 **** Warning!!: The largest alpha MO coefficient is  0.18651365D+02

 Symmetrizing basis deriv contribution to polar:
 IMax=3 JMax=2 DiffMx= 0.00D+00
 G2DrvN: will do    10 centers at a time, making    1 passes.
 Calling FoFCou, ICntrl=  3107 FMM=F I1Cent=   0 AccDes= 0.00D+00.
 End of G2Drv F.D. properties file   721 does not exist.
 End of G2Drv F.D. properties file   722 does not exist.
 End of G2Drv F.D. properties file   788 does not exist.
          IDoAtm=111111111
          Differentiating once with respect to electric field.
                with respect to dipole field.
          Differentiating once with respect to nuclear coordinates.
 Keep R1 ints in memory in canonical form, NReq=52475930.
          There are    30 degrees of freedom in the 1st order CPHF.  IDoFFX=6 NUNeed=     3.
     27 vectors produced by pass  0 Test12= 6.80D-15 3.33D-09 XBig12= 1.52D+01 1.54D+00.
 AX will form    27 AO Fock derivatives at one time.
     27 vectors produced by pass  1 Test12= 6.80D-15 3.33D-09 XBig12= 1.12D+00 2.06D-01.
     27 vectors produced by pass  2 Test12= 6.80D-15 3.33D-09 XBig12= 1.59D-02 3.03D-02.
     27 vectors produced by pass  3 Test12= 6.80D-15 3.33D-09 XBig12= 5.09D-05 1.05D-03.
     27 vectors produced by pass  4 Test12= 6.80D-15 3.33D-09 XBig12= 7.61D-08 3.66D-05.
     16 vectors produced by pass  5 Test12= 6.80D-15 3.33D-09 XBig12= 6.57D-11 1.42D-06.
      3 vectors produced by pass  6 Test12= 6.80D-15 3.33D-09 XBig12= 5.91D-14 3.32D-08.
 InvSVY:  IOpt=1 It=  1 EMax= 1.78D-15
 Solved reduced A of dimension   154 with    30 vectors.
 Isotropic polarizability for W=    0.000000       28.57 Bohr**3.
 End of Minotr F.D. properties file   721 does not exist.
 End of Minotr F.D. properties file   722 does not exist.
 End of Minotr F.D. properties file   788 does not exist.

 **********************************************************************

            Population analysis using the SCF Density.

 **********************************************************************

 Orbital symmetries:
       Occupied  (A) (A) (A) (A) (A) (A) (A) (A) (A) (A) (A) (A)
                 (A) (A) (A) (A) (A)
       Virtual   (A) (A) (A) (A) (A) (A) (A) (A) (A) (A) (A) (A)
                 (A) (A) (A) (A) (A) (A) (A) (A) (A) (A) (A) (A)
                 (A) (A) (A) (A) (A) (A) (A) (A) (A) (A) (A) (A)
                 (A) (A) (A) (A) (A) (A) (A) (A) (A) (A) (A) (A)
                 (A) (A) (A) (A) (A) (A) (A) (A) (A) (A) (A) (A)
                 (A) (A) (A) (A) (A) (A) (A) (A) (A) (A) (A) (A)
                 (A) (A) (A) (A) (A) (A) (A) (A) (A) (A) (A) (A)
                 (A) (A) (A) (A) (A) (A) (A) (A) (A) (A) (A) (A)
                 (A) (A) (A) (A) (A) (A) (A) (A) (A) (A) (A) (A)
                 (A) (A) (A) (A) (A) (A) (A) (A) (A) (A) (A) (A)
 The electronic state is 1-A.
 Alpha  occ. eigenvalues --  -24.66192 -19.14010 -10.25169 -10.23533  -1.17742
 Alpha  occ. eigenvalues --   -1.02209  -0.75078  -0.61874  -0.53198  -0.49760
 Alpha  occ. eigenvalues --   -0.45774  -0.45211  -0.42264  -0.36377  -0.33027
 Alpha  occ. eigenvalues --   -0.31940  -0.27475
 Alpha virt. eigenvalues --    0.07228   0.11362   0.12584   0.15299   0.16913
 Alpha virt. eigenvalues --    0.18270   0.21015   0.22559   0.44402   0.45646
 Alpha virt. eigenvalues --    0.49620   0.50511   0.57675   0.60740   0.66279
 Alpha virt. eigenvalues --    0.68661   0.69754   0.72735   0.76851   0.79545
 Alpha virt. eigenvalues --    0.80830   0.82741   0.87407   0.89281   0.91623
 Alpha virt. eigenvalues --    0.95128   0.96364   1.00622   1.04471   1.06809
 Alpha virt. eigenvalues --    1.10414   1.11081   1.23517   1.28248   1.30768
 Alpha virt. eigenvalues --    1.35031   1.40340   1.44300   1.50455   1.57060
 Alpha virt. eigenvalues --    1.60541   1.62807   1.69542   1.71447   1.75204
 Alpha virt. eigenvalues --    1.89050   1.95161   2.06979   2.11609   2.24848
 Alpha virt. eigenvalues --    2.30894   2.37907   2.45536   2.52000   2.52620
 Alpha virt. eigenvalues --    2.59571   2.64069   2.72529   2.74732   2.81783
 Alpha virt. eigenvalues --    2.87773   2.91873   2.93554   2.99484   3.07643
 Alpha virt. eigenvalues --    3.20768   3.26663   3.33358   3.34819   3.37899
 Alpha virt. eigenvalues --    3.40193   3.54073   3.55089   3.57960   3.66920
 Alpha virt. eigenvalues --    3.89739   3.91920   4.08871   4.10096   4.14091
 Alpha virt. eigenvalues --    4.19943   4.23994   4.32313   4.39294   4.42564
 Alpha virt. eigenvalues --    4.46786   4.47420   4.49403   4.52230   4.60887
 Alpha virt. eigenvalues --    4.63867   4.64325   4.68602   4.69509   4.73878
 Alpha virt. eigenvalues --    4.78899   4.81233   4.87046   4.94069   5.23088
 Alpha virt. eigenvalues --    5.32484   5.41421   5.47093   5.52336   5.76726
 Alpha virt. eigenvalues --    5.93128   5.99600   6.05447   6.67340   6.68066
 Alpha virt. eigenvalues --    6.79605   6.80240   7.05165   7.24911   7.31612
 Alpha virt. eigenvalues --    7.33560   9.55249  11.02562  11.83392  13.16743
          Condensed to atoms (all electrons):
               1          2          3          4          5          6
     1  C    4.824107   0.354760   0.332320   0.372505  -0.040207  -0.038414
     2  H    0.354760   0.651255  -0.051486  -0.027746  -0.000255   0.007251
     3  H    0.332320  -0.051486   0.690205  -0.027845   0.002770   0.001356
     4  C    0.372505  -0.027746  -0.027845   4.665633   0.345647   0.348508
     5  H   -0.040207  -0.000255   0.002770   0.345647   0.666890  -0.048145
     6  H   -0.038414   0.007251   0.001356   0.348508  -0.048145   0.638376
     7  F   -0.032092   0.000747   0.001991   0.385016  -0.024219  -0.023611
     8  O    0.356660  -0.031664  -0.033396  -0.032059   0.002202   0.000405
     9  H   -0.048695  -0.006203  -0.002217   0.005719  -0.000329  -0.000260
               7          8          9
     1  C   -0.032092   0.356660  -0.048695
     2  H    0.000747  -0.031664  -0.006203
     3  H    0.001991  -0.033396  -0.002217
     4  C    0.385016  -0.032059   0.005719
     5  H   -0.024219   0.002202  -0.000329
     6  H   -0.023611   0.000405  -0.000260
     7  F    8.851113  -0.000075  -0.000084
     8  O   -0.000075   7.847478   0.305708
     9  H   -0.000084   0.305708   0.455819
 Mulliken charges:
               1
     1  C   -0.080944
     2  H    0.103341
     3  H    0.086302
     4  C   -0.035378
     5  H    0.095645
     6  H    0.114535
     7  F   -0.158785
     8  O   -0.415258
     9  H    0.290542
 Sum of Mulliken charges =  -0.00000
 Mulliken charges with hydrogens summed into heavy atoms:
               1
     1  C    0.108699
     4  C    0.174803
     7  F   -0.158785
     8  O   -0.124717
 APT charges:
               1
     1  C    0.460963
     2  H   -0.064643
     3  H   -0.082004
     4  C    0.565642
     5  H   -0.053549
     6  H   -0.034043
     7  F   -0.465240
     8  O   -0.566212
     9  H    0.239086
 Sum of APT charges =   0.00000
 APT charges with hydrogens summed into heavy atoms:
               1
     1  C    0.314316
     4  C    0.478050
     7  F   -0.465240
     8  O   -0.327126
 Electronic spatial extent (au):  <R**2>=            299.4114
 Charge=             -0.0000 electrons
 Dipole moment (field-independent basis, Debye):
    X=              1.4633    Y=              1.7344    Z=             -0.6972  Tot=              2.3739
 Quadrupole moment (field-independent basis, Debye-Ang):
   XX=            -22.0362   YY=            -23.7088   ZZ=            -22.9180
   XY=             -1.5033   XZ=             -3.0828   YZ=              0.5666
 Traceless Quadrupole moment (field-independent basis, Debye-Ang):
   XX=              0.8514   YY=             -0.8211   ZZ=             -0.0303
   XY=             -1.5033   XZ=             -3.0828   YZ=              0.5666
 Octapole moment (field-independent basis, Debye-Ang**2):
  XXX=             10.2720  YYY=             -5.1742  ZZZ=             -0.7574  XYY=             -1.2727
  XXY=             -2.5122  XXZ=             -4.2734  XZZ=             -1.9205  YZZ=             -2.2131
  YYZ=             -0.4776  XYZ=              1.4099
 Hexadecapole moment (field-independent basis, Debye-Ang**3):
 XXXX=           -180.2385 YYYY=            -71.0523 ZZZZ=            -45.3663 XXXY=             -8.5287
 XXXZ=             -7.3351 YYYX=              1.9884 YYYZ=              1.0555 ZZZX=              1.6208
 ZZZY=              0.8282 XXYY=            -44.4700 XXZZ=            -43.1404 YYZZ=            -20.5782
 XXYZ=              2.4731 YYXZ=              0.6391 ZZXY=              0.7482
 N-N= 1.297082452741D+02 E-N=-8.591648894882D+02  KE= 2.526796431397D+02
  Exact polarizability:      30.974      -1.611      27.810      -1.065      -0.180      26.924
 Approx polarizability:      38.500      -1.058      38.482      -0.155      -0.345      37.020
 Calling FoFJK, ICntrl=    100127 FMM=F ISym2X=0 I1Cent= 0 IOpClX= 0 NMat=1 NMatS=1 NMatT=0.
 Full mass-weighted force constant matrix:
 Low frequencies ---  -22.4698   -6.8474   -0.0011   -0.0005    0.0010   17.0326
 Low frequencies ---  129.0601  227.4577  337.3228
 Diagonal vibrational polarizability:
       15.5468602      36.0865068      20.0406248
 Harmonic frequencies (cm**-1), IR intensities (KM/Mole), Raman scattering
 activities (A**4/AMU), depolarization ratios for plane and unpolarized
 incident light, reduced masses (AMU), force constants (mDyne/A),
 and normal coordinates:
                      1                      2                      3
                      A                      A                      A
 Frequencies --    129.0432               227.4568               337.3212
 Red. masses --      3.6914                 1.0962                 2.6566
 Frc consts  --      0.0362                 0.0334                 0.1781
 IR Inten    --      2.0094               113.0112                 4.3389
  Atom  AN      X      Y      Z        X      Y      Z        X      Y      Z
     1   6     0.02   0.14   0.08     0.01  -0.01  -0.01     0.08   0.00   0.13
     2   1     0.14   0.43   0.02     0.03   0.05  -0.02     0.30   0.28   0.07
     3   1     0.13   0.05   0.38     0.01  -0.02   0.06    -0.05   0.02   0.45
     4   6    -0.04   0.14  -0.08     0.00   0.00  -0.02    -0.08   0.01  -0.13
     5   1    -0.14   0.04  -0.39     0.02   0.01  -0.05     0.05   0.03  -0.47
     6   1    -0.16   0.43  -0.02     0.01   0.03  -0.01    -0.31   0.30  -0.05
     7   9     0.20  -0.11   0.08    -0.02   0.00   0.02    -0.16  -0.03   0.06
     8   8    -0.21  -0.13  -0.09    -0.02  -0.05  -0.04     0.19  -0.01  -0.05
     9   1    -0.19  -0.17  -0.05     0.46   0.69   0.55     0.03  -0.04  -0.29
                      4                      5                      6
                      A                      A                      A
 Frequencies --    483.0139               877.8535               926.4714
 Red. masses --      2.3160                 2.5106                 2.0247
 Frc consts  --      0.3184                 1.1399                 1.0239
 IR Inten    --     15.7481                16.0385                47.6669
  Atom  AN      X      Y      Z        X      Y      Z        X      Y      Z
     1   6    -0.12  -0.13   0.09     0.15   0.16  -0.06     0.13   0.04   0.08
     2   1    -0.45  -0.34   0.16    -0.04  -0.19   0.01    -0.37  -0.17   0.15
     3   1    -0.03  -0.11  -0.26     0.50   0.06  -0.46     0.20   0.08  -0.34
     4   6    -0.11   0.11   0.10    -0.14   0.14   0.08     0.13  -0.07   0.08
     5   1    -0.04   0.10  -0.25    -0.44   0.01   0.34     0.33  -0.04  -0.45
     6   1    -0.45   0.30   0.16    -0.07  -0.14   0.02    -0.41   0.19   0.17
     7   9     0.11   0.03  -0.06    -0.07  -0.09  -0.02    -0.07  -0.04  -0.03
     8   8     0.10  -0.04  -0.05     0.07  -0.09   0.01    -0.10   0.08  -0.06
     9   1     0.06   0.24  -0.16     0.13  -0.12   0.10     0.00  -0.11   0.13
                      7                      8                      9
                      A                      A                      A
 Frequencies --   1074.4744              1110.6824              1123.0577
 Red. masses --      2.0448                 3.5185                 2.8646
 Frc consts  --      1.3909                 2.5573                 2.1287
 IR Inten    --     47.1238                37.1564                40.0466
  Atom  AN      X      Y      Z        X      Y      Z        X      Y      Z
     1   6    -0.06   0.04   0.16    -0.07   0.26   0.02     0.17  -0.11   0.13
     2   1    -0.20  -0.31   0.23    -0.40  -0.25   0.13     0.40  -0.48   0.14
     3   1     0.06   0.04  -0.21    -0.17   0.34  -0.45     0.19  -0.05  -0.21
     4   6     0.14   0.11  -0.13    -0.03  -0.24  -0.14    -0.16  -0.08  -0.11
     5   1     0.07   0.11   0.21    -0.08  -0.27  -0.27    -0.20  -0.03   0.25
     6   1     0.43  -0.17  -0.21    -0.21  -0.07  -0.09    -0.15  -0.40  -0.15
     7   9    -0.05  -0.07  -0.01     0.06   0.13   0.07     0.07   0.08   0.07
     8   8    -0.01  -0.03   0.01     0.06  -0.14   0.05    -0.09   0.10  -0.09
     9   1    -0.20   0.43  -0.36     0.05  -0.03  -0.01    -0.11   0.17  -0.12
                     10                     11                     12
                      A                      A                      A
 Frequencies --   1240.6308              1276.2132              1314.0082
 Red. masses --      1.1646                 1.1250                 1.0990
 Frc consts  --      1.0561                 1.0795                 1.1180
 IR Inten    --     13.1900                36.5178                17.7535
  Atom  AN      X      Y      Z        X      Y      Z        X      Y      Z
     1   6     0.01   0.02  -0.02    -0.01  -0.00  -0.06    -0.01   0.04  -0.05
     2   1     0.53  -0.27  -0.04    -0.12   0.27  -0.09     0.39  -0.10  -0.08
     3   1    -0.10   0.10  -0.08     0.63  -0.31   0.06    -0.23   0.15  -0.10
     4   6     0.02  -0.04   0.09     0.00  -0.05  -0.00     0.00   0.02   0.02
     5   1    -0.24  -0.23  -0.18     0.01  -0.05  -0.07     0.52   0.34   0.10
     6   1     0.21   0.42   0.15    -0.21  -0.08   0.01    -0.47  -0.26   0.02
     7   9    -0.01   0.01  -0.03     0.00   0.01   0.01     0.01  -0.03   0.01
     8   8    -0.02  -0.02   0.01    -0.01   0.00   0.06    -0.00  -0.03   0.02
     9   1    -0.17   0.32  -0.28    -0.21   0.41  -0.33    -0.08   0.17  -0.14
                     13                     14                     15
                      A                      A                      A
 Frequencies --   1419.2238              1466.5145              1500.1827
 Red. masses --      1.2669                 1.5251                 1.0904
 Frc consts  --      1.5034                 1.9325                 1.4458
 IR Inten    --     10.5808                 3.8839                 6.4110
  Atom  AN      X      Y      Z        X      Y      Z        X      Y      Z
     1   6    -0.05   0.04   0.03     0.17  -0.01  -0.07     0.01   0.02  -0.01
     2   1     0.16  -0.06   0.02    -0.56  -0.03   0.03    -0.11  -0.15   0.03
     3   1     0.37  -0.12  -0.12    -0.40   0.18   0.29     0.08  -0.05   0.16
     4   6    -0.12  -0.05   0.03    -0.10  -0.01   0.03    -0.00  -0.06  -0.06
     5   1     0.56   0.28  -0.21     0.21   0.15  -0.11     0.14   0.15   0.65
     6   1     0.55   0.11  -0.03     0.32   0.00  -0.02    -0.15   0.65   0.10
     7   9     0.01  -0.01  -0.01     0.01  -0.00  -0.00    -0.00  -0.01  -0.01
     8   8     0.01   0.01  -0.02    -0.02  -0.02   0.04    -0.00   0.00  -0.00
     9   1     0.07  -0.12   0.10    -0.17   0.30  -0.26     0.01  -0.01   0.01
                     16                     17                     18
                      A                      A                      A
 Frequencies --   1505.0818              2963.5355              3013.8046
 Red. masses --      1.1009                 1.0629                 1.0887
 Frc consts  --      1.4693                 5.4998                 5.8264
 IR Inten    --      4.0828                49.3381                22.3051
  Atom  AN      X      Y      Z        X      Y      Z        X      Y      Z
     1   6     0.03  -0.06   0.05    -0.03  -0.06   0.02    -0.02  -0.03  -0.07
     2   1     0.03   0.67  -0.08    -0.06  -0.07  -0.35     0.10   0.12   0.86
     3   1    -0.16   0.16  -0.64     0.38   0.83   0.15     0.11   0.24   0.03
     4   6    -0.02  -0.02  -0.01    -0.00   0.01   0.00    -0.01   0.01   0.02
     5   1     0.03   0.04   0.16     0.06  -0.11   0.02     0.13  -0.22   0.04
     6   1     0.08   0.19   0.02    -0.01   0.01  -0.04    -0.04   0.06  -0.30
     7   9     0.00  -0.00  -0.00     0.00   0.00   0.00     0.00   0.00   0.00
     8   8    -0.00  -0.01   0.02     0.00  -0.00   0.00    -0.00   0.00   0.00
     9   1    -0.04   0.07  -0.06     0.00  -0.00   0.00     0.00   0.01  -0.00
                     19                     20                     21
                      A                      A                      A
 Frequencies --   3027.2452              3077.5584              3836.3726
 Red. masses --      1.0657                 1.1070                 1.0664
 Frc consts  --      5.7544                 6.1775                 9.2474
 IR Inten    --     61.5009                40.5994                23.6016
  Atom  AN      X      Y      Z        X      Y      Z        X      Y      Z
     1   6    -0.01  -0.02  -0.03    -0.00   0.00  -0.01    -0.00  -0.00   0.00
     2   1     0.03   0.04   0.31     0.01   0.02   0.11     0.00  -0.00  -0.00
     3   1     0.10   0.21   0.03    -0.00  -0.01  -0.00     0.00  -0.00   0.00
     4   6     0.03  -0.05  -0.03    -0.03   0.05  -0.07     0.00   0.00   0.00
     5   1    -0.37   0.66  -0.12     0.28  -0.49   0.07    -0.00  -0.00  -0.00
     6   1     0.06  -0.10   0.49     0.08  -0.14   0.79     0.00   0.00  -0.00
     7   9    -0.00  -0.00  -0.00     0.00  -0.00   0.00     0.00   0.00  -0.00
     8   8    -0.00   0.00   0.00     0.00  -0.00   0.00    -0.05   0.01   0.03
     9   1     0.00   0.00  -0.00     0.00  -0.00  -0.00     0.83  -0.10  -0.55

 -------------------
 - Thermochemistry -
 -------------------
 Temperature   298.150 Kelvin.  Pressure   1.00000 Atm.
 Atom     1 has atomic number  6 and mass  12.00000
 Atom     2 has atomic number  1 and mass   1.00783
 Atom     3 has atomic number  1 and mass   1.00783
 Atom     4 has atomic number  6 and mass  12.00000
 Atom     5 has atomic number  1 and mass   1.00783
 Atom     6 has atomic number  1 and mass   1.00783
 Atom     7 has atomic number  9 and mass  18.99840
 Atom     8 has atomic number  8 and mass  15.99491
 Atom     9 has atomic number  1 and mass   1.00783
 Molecular mass:    64.03244 amu.
 Principal axes and moments of inertia in atomic units:
                           1         2         3
     Eigenvalues --   101.12870 371.60711 412.70623
           X            0.99909  -0.02660  -0.03327
           Y            0.02670   0.99964   0.00247
           Z            0.03320  -0.00336   0.99944
 This molecule is an asymmetric top.
 Rotational symmetry number  1.
 Rotational temperatures (Kelvin)      0.85647     0.23308     0.20987
 Rotational constants (GHZ):          17.84598     4.85658     4.37294
 Zero-point vibrational energy     190982.3 (Joules/Mol)
                                   45.64586 (Kcal/Mol)
 Warning -- explicit consideration of   4 degrees of freedom as
           vibrations may cause significant error
 Vibrational temperatures:    185.66   327.26   485.33   694.95  1263.04
          (Kelvin)           1332.99  1545.93  1598.02  1615.83  1784.99
                             1836.19  1890.56  2041.95  2109.99  2158.43
                             2165.48  4263.87  4336.19  4355.53  4427.92
                             5519.68
 
 Zero-point correction=                           0.072741 (Hartree/Particle)
 Thermal correction to Energy=                    0.077627
 Thermal correction to Enthalpy=                  0.078571
 Thermal correction to Gibbs Free Energy=         0.045294
 Sum of electronic and zero-point Energies=           -254.208054
 Sum of electronic and thermal Energies=              -254.203168
 Sum of electronic and thermal Enthalpies=            -254.202224
 Sum of electronic and thermal Free Energies=         -254.235501
 
                     E (Thermal)             CV                S
                      KCal/Mol        Cal/Mol-Kelvin    Cal/Mol-Kelvin
 Total                   48.712             15.218             70.037
 Electronic               0.000              0.000              0.000
 Translational            0.889              2.981             38.389
 Rotational               0.889              2.981             24.254
 Vibrational             46.934              9.256              7.394
 Vibration     1          0.612              1.924              2.960
 Vibration     2          0.651              1.799              1.899
 Vibration     3          0.718              1.601              1.225
 Vibration     4          0.839              1.288              0.702
                       Q            Log10(Q)             Ln(Q)
 Total Bot       0.146587D-20        -20.833904        -47.971837
 Total V=0       0.421452D+13         12.624748         29.069556
 Vib (Bot)       0.163266D-32        -32.787103        -75.495095
 Vib (Bot)    1  0.158020D+01          0.198712          0.457550
 Vib (Bot)    2  0.866873D+00         -0.062044         -0.142862
 Vib (Bot)    3  0.551398D+00         -0.258535         -0.595298
 Vib (Bot)    4  0.345360D+00         -0.461729         -1.063169
 Vib (V=0)       0.469406D+01          0.671549          1.546298
 Vib (V=0)    1  0.215742D+01          0.333934          0.768911
 Vib (V=0)    2  0.150073D+01          0.176304          0.405955
 Vib (V=0)    3  0.124434D+01          0.094939          0.218604
 Vib (V=0)    4  0.110768D+01          0.044414          0.102266
 Electronic      0.100000D+01          0.000000          0.000000
 Translational   0.201397D+08          7.304054         16.818206
 Rotational      0.445805D+05          4.649145         10.705053
 ***** Axes restored to original set *****
 -------------------------------------------------------------------
 Center     Atomic                   Forces (Hartrees/Bohr)
 Number     Number              X              Y              Z
 -------------------------------------------------------------------
      1        6          -0.000920744    0.001039942   -0.001930173
      2        1          -0.000008159    0.000032525   -0.000013662
      3        1           0.000000315    0.000028729    0.000019210
      4        6           0.001007322    0.001171002    0.001984615
      5        1           0.000007321    0.000011378   -0.000029356
      6        1           0.000002800    0.000028829    0.000011434
      7        9          -0.000590775   -0.001169409   -0.001215191
      8        8           0.000513368   -0.001134486    0.001174092
      9        1          -0.000011448   -0.000008511   -0.000000969
 -------------------------------------------------------------------
 Cartesian Forces:  Max     0.001984615 RMS     0.000818908

 GradGradGradGradGradGradGradGradGradGradGradGradGradGradGradGradGradGrad
 Berny optimization.
 Search for a local minimum.
 Step number   1 out of a maximum of    2
 All quantities printed in internal units (Hartrees-Bohrs-Radians)
 Second derivative matrix not updated -- analytic derivatives used.
 ITU=  0
     Eigenvalues ---    0.00212   0.00372   0.01876   0.02618   0.05393
     Eigenvalues ---    0.06599   0.07931   0.08441   0.10999   0.11959
     Eigenvalues ---    0.15502   0.16335   0.20374   0.30009   0.46889
     Eigenvalues ---    0.66950   0.72192   0.75875   0.79723   0.85644
     Eigenvalues ---    1.04683
 Quadratic step=5.670D-01 exceeds max=3.000D-01 adjusted using Lamda=-2.258D-03.
 Angle between NR and scaled steps=   7.18 degrees.
 Angle between quadratic step and forces=  66.39 degrees.
 Linear search not attempted -- first point.
 B after Tr=    -0.004710   -0.018990   -0.006123
         Rot=    0.999992   -0.001381   -0.003596    0.001426 Ang=  -0.47 deg.
 Variable       Old X    -DE/DX   Delta X   Delta X   Delta X     New X
                                 (Linear)    (Quad)   (Total)
    X1       -1.22414  -0.00092   0.00000  -0.00780  -0.00530  -1.22944
    Y1        0.96425   0.00104   0.00000   0.02977   0.01260   0.97685
    Z1        0.62154  -0.00193   0.00000  -0.01968  -0.01422   0.60732
    X2       -0.95074  -0.00001   0.00000  -0.03220  -0.01538  -0.96612
    Y2        0.70192   0.00003   0.00000   0.12526   0.10167   0.80359
    Z2        2.66546  -0.00001   0.00000  -0.00290   0.00025   2.66571
    X3       -2.04064   0.00000   0.00000  -0.03991  -0.03486  -2.07549
    Y3        2.85887   0.00003   0.00000   0.00131  -0.01237   2.84650
    Z3        0.32446   0.00002   0.00000  -0.11411  -0.09740   0.22706
    X4        1.34111   0.00101   0.00000   0.00790   0.00125   1.34236
    Y4        0.87886   0.00117   0.00000   0.02875   0.00765   0.88651
    Z4       -0.64659   0.00198   0.00000   0.02004   0.00672  -0.63987
    X5        2.32881   0.00001   0.00000   0.04481   0.04592   2.37472
    Y5        2.68029   0.00001   0.00000  -0.00679  -0.03187   2.64842
    Z5       -0.36197  -0.00003   0.00000   0.11708   0.10124  -0.26073
    X6        1.10564   0.00000   0.00000   0.03171   0.00964   1.11529
    Y6        0.54519   0.00003   0.00000   0.12763   0.11283   0.65801
    Z6       -2.67813   0.00001   0.00000   0.00010  -0.01227  -2.69040
    X7        2.80606  -0.00059   0.00000  -0.06458  -0.07031   2.73575
    Y7       -1.02409  -0.00117   0.00000  -0.06563  -0.09325  -1.11734
    Z7        0.36213  -0.00122   0.00000  -0.05795  -0.08680   0.27532
    X8       -2.76667   0.00051   0.00000   0.05799   0.04764  -2.71903
    Y8       -0.94025  -0.00113   0.00000  -0.06304  -0.07323  -1.01348
    Z8       -0.45230   0.00117   0.00000   0.05590   0.06652  -0.38578
    X9       -4.26606  -0.00001   0.00000   0.02506   0.02139  -4.24467
    Y9       -1.10615  -0.00001   0.00000  -0.01552  -0.02404  -1.13019
    Z9        0.55975  -0.00000   0.00000   0.01467   0.03596   0.59571
         Item               Value     Threshold  Converged?
 Maximum Force            0.001985     0.000450     NO 
 RMS     Force            0.000819     0.000300     NO 
 Maximum Displacement     0.112825     0.001800     NO 
 RMS     Displacement     0.055720     0.001200     NO 
 Predicted change in Energy=-3.583748D-04
 GradGradGradGradGradGradGradGradGradGradGradGradGradGradGradGradGradGrad


 ----------------------------------------------------------------------

 Electric dipole moment (input orientation):
 (Debye = 10**-18 statcoulomb cm , SI units = C m)
                  (au)            (Debye)         (10**-30 SI)
   Tot        0.933982D+00      0.237395D+01      0.791863D+01
   x         -0.575700D+00     -0.146328D+01     -0.488099D+01
   y          0.682379D+00      0.173444D+01      0.578545D+01
   z          0.274318D+00      0.697248D+00      0.232577D+01

 Dipole polarizability, Alpha (input orientation).
 (esu units = cm**3 , SI units = C**2 m**2 J**-1)
 Alpha(0;0):
               (au)            (10**-24 esu)      (10**-40 SI)
   iso        0.285695D+02      0.423356D+01      0.471047D+01
   aniso      0.498857D+01      0.739230D+00      0.822505D+00
   xx         0.309744D+02      0.458994D+01      0.510700D+01
   yx         0.161075D+01      0.238689D+00      0.265577D+00
   yy         0.278102D+02      0.412105D+01      0.458529D+01
   zx        -0.106495D+01     -0.157809D+00     -0.175586D+00
   zy         0.179668D+00      0.266241D-01      0.296233D-01
   zz         0.269237D+02      0.398969D+01      0.443912D+01

 ----------------------------------------------------------------------

 Dipole orientation:
     6         -0.14585613         -0.31383691          1.64159473
     1          1.21579145         -1.86607632          1.88173028
     1         -0.24615975          0.73186835          3.44185681
     6          0.85462533          1.45548662         -0.37445575
     1          2.35477754          2.64950499          0.41647973
     1         -0.68006663          2.66179265         -1.06978030
     9          1.84869095          0.11068627         -2.37148702
     8         -2.56024642         -1.18492983          0.88555672
     1         -3.05322080         -2.54373623          1.98580958

 Electric dipole moment (dipole orientation):
 (Debye = 10**-18 statcoulomb cm , SI units = C m)
                  (au)            (Debye)         (10**-30 SI)
   Tot        0.933982D+00      0.237395D+01      0.791863D+01
   x          0.000000D+00      0.000000D+00      0.000000D+00
   y          0.000000D+00      0.000000D+00      0.000000D+00
   z          0.933982D+00      0.237395D+01      0.791863D+01

 Dipole polarizability, Alpha (dipole orientation).
 (esu units = cm**3 , SI units = C**2 m**2 J**-1)
 Alpha(0;0):
               (au)            (10**-24 esu)      (10**-40 SI)
   iso        0.285695D+02      0.423356D+01      0.471047D+01
   aniso      0.498857D+01      0.739230D+00      0.822505D+00
   xx         0.289939D+02      0.429645D+01      0.478044D+01
   yx         0.238109D+01      0.352841D+00      0.392589D+00
   yy         0.287666D+02      0.426278D+01      0.474298D+01
   zx        -0.769511D+00     -0.114030D+00     -0.126875D+00
   zy        -0.131563D+01     -0.194956D+00     -0.216917D+00
   zz         0.279479D+02      0.414145D+01      0.460798D+01

 ----------------------------------------------------------------------
 Unable to Open any file for archive entry.
 1\1\GINC-COMPUTE-2-2\Freq\RB3LYP\6-31G(2df,p)\C2H5F1O1\JINGDAN2\05-Dec
 -2024\0\\# freq b3lyp/6-31g(2df,p)\\energy: -15.614184499692 gnorm: 0.
 000439253721 xtb: 6.6.1 (8d0f1dd)\\0,1\C,-0.647785,0.51026,0.328904\H,
 -0.50311,0.37144,1.410503\H,-1.079859,1.512848,0.171696\C,0.709684,0.4
 65071,-0.342162\H,1.232351,1.418348,-0.191546\H,0.585081,0.2885,-1.417
 206\F,1.484903,-0.541923,0.191629\O,-1.464061,-0.497559,-0.239346\H,-2
 .257504,-0.585349,0.296207\\Version=ES64L-G16RevC.01\State=1-A\HF=-254
 .2807952\RMSD=3.394e-09\RMSF=8.189e-04\ZeroPoint=0.0727413\Thermal=0.0
 77627\ETot=-254.2031682\HTot=-254.202224\GTot=-254.2355009\Dipole=-0.5
 757004,0.6823794,0.2743184\DipoleDeriv=0.4524235,0.2633354,0.1379175,0
 .1886092,0.6141691,0.0688156,0.2216781,0.0431527,0.3162963,-0.0205677,
 -0.0218664,-0.0282787,-0.0491014,0.0016135,0.0404136,-0.0451481,-0.011
 4065,-0.1749758,-0.0519563,0.0577155,-0.0105045,0.0293326,-0.2155101,0
 .0075289,-0.0413483,0.0356363,0.0214545,0.5960633,-0.2649733,0.0937376
 ,-0.2099579,0.6732315,-0.115288,0.1453679,-0.0856132,0.4276306,-0.0562
 397,-0.0707402,-0.0111517,-0.0564087,-0.1376318,-0.0009986,-0.0385014,
 -0.0392825,0.0332244,0.0124093,0.0221625,-0.0172147,0.0327073,0.016800
 7,-0.0537314,-0.0173665,0.0004782,-0.1313391,-0.5263995,0.2718372,-0.0
 756466,0.2993741,-0.5544979,0.127327,-0.1248921,0.1594245,-0.3148223,-
 0.6025594,-0.241935,-0.1718147,-0.2408598,-0.6977914,-0.0303063,-0.192
 2683,-0.0685969,-0.3982852,0.1968264,-0.0155356,0.0829558,0.0063046,0.
 2996164,-0.0437608,0.0924787,-0.0337926,0.2208165\Polar=30.974441,1.61
 07517,27.8102397,-1.0649476,0.179668,26.9237378\Quadrupole=0.6330284,-
 0.6104726,-0.0225559,1.1176724,-2.2919979,-0.4212578\PG=C01 [X(C2H5F1O
 1)]\NImag=0\\0.49940197,-0.03228813,0.53117883,0.00127718,-0.02923899,
 0.56759305,-0.05318375,0.00528159,-0.02491717,0.05738132,0.00325004,-0
 .05845221,0.04539169,0.00128540,0.06175908,-0.02478723,0.03941434,-0.2
 8212105,0.03281305,-0.03727101,0.31196163,-0.09606126,0.09128530,-0.01
 331571,0.00062472,0.00222439,0.00071583,0.10256776,0.09194524,-0.22942
 201,0.03754079,0.00503268,-0.00375719,0.00228495,-0.09218947,0.2661666
 7,-0.01632617,0.03788547,-0.06153685,-0.01455625,0.02754902,-0.0043957
 1,0.02007761,-0.03332961,0.05747837,-0.16523953,-0.01000631,0.05424526
 ,0.00254066,0.00331703,-0.00157792,-0.00845753,0.00106055,0.00587057,0
 .49942909,0.00817899,-0.07010586,-0.00566288,-0.00414773,0.00047359,0.
 00477622,0.02543093,-0.00298316,-0.01265131,0.05262644,0.54925806,0.05
 690671,0.00175012,-0.11493084,0.03296890,-0.00090560,-0.01824576,-0.00
 997113,0.00221888,0.00343920,0.02161483,0.03410285,0.57676735,-0.01032
 326,-0.02440578,-0.00920172,0.00069063,0.00047161,0.00091492,-0.000000
 79,0.00035035,-0.00073123,-0.11734828,-0.11180475,-0.01862589,0.124455
 53,0.00022764,0.00044926,-0.00182581,-0.00010832,-0.00023277,-0.000041
 81,-0.00033104,0.00132501,0.00038388,-0.10791841,-0.22510603,-0.034920
 96,0.11042110,0.26078366,0.00809911,0.01288082,0.00404638,-0.00081836,
 0.00002505,0.00005365,-0.00088444,-0.00037323,0.00064200,-0.02076433,-
 0.03938787,-0.06294181,0.02322520,0.03158270,0.05735689,0.00225493,0.0
 0455511,0.03240674,-0.00563276,-0.00045006,0.00246609,0.00068027,0.000
 10814,-0.00083910,-0.05299449,-0.00557663,-0.02136189,0.00074770,-0.00
 555793,-0.01591233,0.05764885,-0.00312760,0.00253892,-0.00138105,0.000
 93655,0.00050377,0.00036776,-0.00082691,-0.00021574,0.00030695,-0.0069
 8040,-0.06315998,-0.05734015,-0.00190949,-0.00282975,-0.02589247,-0.00
 141237,0.06577517,-0.00061388,-0.00540192,-0.01642227,0.00225389,-0.00
 060860,-0.00015625,0.00114027,-0.00006724,-0.00024434,-0.02248169,-0.0
 4873007,-0.29093296,0.00118588,-0.00182171,-0.00253971,0.03050424,0.04
 665461,0.32011370,-0.02747021,0.04285370,-0.01664358,0.00352218,-0.001
 01643,-0.00158212,-0.00840428,-0.00025807,0.00364716,-0.12461998,0.078
 75390,-0.04471437,0.00960756,0.00264093,0.00352493,-0.00644809,0.01263
 182,-0.00975975,0.15116531,0.01474361,-0.01597664,0.00411019,-0.001077
 46,0.00066363,-0.00063595,0.00282772,0.00183480,-0.00121060,0.07895048
 ,-0.17592411,0.05785204,0.02833173,-0.03587993,0.02069792,0.00733960,-
 0.00285644,0.00980144,-0.13343383,0.22335859,0.00446897,-0.00689170,0.
 00710931,-0.00236100,-0.00105326,0.00342993,0.00347805,-0.00055157,0.0
 0024093,-0.04501506,0.05749437,-0.10018280,-0.00080008,0.00670579,0.00
 377288,-0.02524504,0.03615322,-0.01248533,0.06574448,-0.09105188,0.097
 30040,-0.12774450,-0.07818713,-0.04011590,-0.00761129,-0.01104253,-0.0
 0947513,0.00761861,-0.00687492,0.00226995,-0.03072937,-0.03741778,-0.0
 1433472,-0.00652853,0.00035293,0.00299271,0.00320190,0.00075208,-0.001
 63111,0.00199124,0.00188236,-0.00008475,0.50969570,-0.05386411,-0.1538
 1789,-0.06658596,-0.00762671,-0.00235235,-0.00789463,-0.02803437,-0.03
 296336,-0.01960932,-0.00861847,-0.00803868,-0.00021625,-0.00023912,0.0
 0114579,-0.00010607,0.00070037,0.00029399,0.00026637,-0.00232614,0.004
 64484,-0.00075803,0.15670368,0.21617158,-0.00693935,-0.04327191,-0.110
 01664,-0.02437474,-0.03294383,-0.01159083,-0.00152718,-0.00687101,0.00
 455386,0.00942198,0.01262001,0.00848855,0.00472826,0.00008201,-0.00125
 894,-0.00182361,0.00115881,0.00205583,-0.00024269,0.00000272,0.0008301
 7,-0.19319305,0.07711723,0.29385277,-0.02163439,0.00091165,0.01626490,
 0.00166829,0.00196054,0.00051250,0.00143251,0.00082550,0.00058745,-0.0
 0258057,-0.00604336,-0.00248245,-0.00130056,0.00027312,0.00053751,0.00
 054170,-0.00006368,-0.00059785,0.00065627,0.00043579,-0.00018556,-0.34
 989376,-0.05669512,0.21395039,0.37111051,-0.02906568,-0.00639239,0.017
 65201,0.00042401,0.00139445,-0.00099987,-0.00038654,0.00001498,0.00067
 553,-0.00243091,-0.00441383,-0.00254095,-0.00121564,0.00034476,0.00057
 316,0.00029378,-0.00004996,-0.00009288,0.00015413,0.00013526,-0.000046
 94,-0.02616869,-0.02508392,-0.00789404,0.05839554,0.03405065,-0.022085
 34,-0.00712622,0.00627890,-0.00100833,-0.00018346,0.00106438,0.0002867
 0,-0.00085197,-0.00017747,-0.00131364,-0.00256131,-0.00146093,-0.00069
 534,-0.00014408,0.00086866,-0.00019510,-0.00002768,0.00061132,0.000025
 94,0.00043412,-0.00001548,0.25357201,0.01778664,-0.18691476,-0.2285869
 0,-0.00732603,0.17974537\\0.00092074,-0.00103994,0.00193017,0.00000816
 ,-0.00003252,0.00001366,-0.00000032,-0.00002873,-0.00001921,-0.0010073
 2,-0.00117100,-0.00198462,-0.00000732,-0.00001138,0.00002936,-0.000002
 80,-0.00002883,-0.00001143,0.00059077,0.00116941,0.00121519,-0.0005133
 7,0.00113449,-0.00117409,0.00001145,0.00000851,0.00000097\\\@
 The archive entry for this job was punched.


 LIFE IS A CONTINUAL STRUGGLE AGAINST THE TENDENCY TO PRODUCE ENTROPY.
 Job cpu time:       0 days  0 hours  7 minutes 28.3 seconds.
 Elapsed time:       0 days  0 hours  0 minutes 57.3 seconds.
 File lengths (MBytes):  RWF=     21 Int=      0 D2E=      0 Chk=      2 Scr=      1
 Normal termination of Gaussian 16 at Thu Dec  5 18:22:49 2024.
