 Entering Gaussian System, Link 0=g16
 Input=rotation_std1.gjf
 Output=rotation_std1.log
 Initial command:
 /share/apps/gaussian/g16/l1.exe "/scratch/jingdan2/247447/Gau-87111.inp" -scrdir="/scratch/jingdan2/247447/"
 Entering Link 1 = /share/apps/gaussian/g16/l1.exe PID=     87119.
  
 Copyright (c) 1988-2019, Gaussian, Inc.  All Rights Reserved.
  
 This is part of the Gaussian(R) 16 program.  It is based on
 the Gaussian(R) 09 system (copyright 2009, Gaussian, Inc.),
 the Gaussian(R) 03 system (copyright 2003, Gaussian, Inc.),
 the Gaussian(R) 98 system (copyright 1998, Gaussian, Inc.),
 the Gaussian(R) 94 system (copyright 1995, Gaussian, Inc.),
 the Gaussian 92(TM) system (copyright 1992, Gaussian, Inc.),
 the Gaussian 90(TM) system (copyright 1990, Gaussian, Inc.),
 the Gaussian 88(TM) system (copyright 1988, Gaussian, Inc.),
 the Gaussian 86(TM) system (copyright 1986, Carnegie Mellon
 University), and the Gaussian 82(TM) system (copyright 1983,
 Carnegie Mellon University). Gaussian is a federally registered
 trademark of Gaussian, Inc.
  
 This software contains proprietary and confidential information,
 including trade secrets, belonging to Gaussian, Inc.
  
 This software is provided under written license and may be
 used, copied, transmitted, or stored only in accord with that
 written license.
  
 The following legend is applicable only to US Government
 contracts under FAR:
  
                    RESTRICTED RIGHTS LEGEND
  
 Use, reproduction and disclosure by the US Government is
 subject to restrictions as set forth in subparagraphs (a)
 and (c) of the Commercial Computer Software - Restricted
 Rights clause in FAR 52.227-19.
  
 Gaussian, Inc.
 340 Quinnipiac St., Bldg. 40, Wallingford CT 06492
  
  
 ---------------------------------------------------------------
 Warning -- This program may not be used in any manner that
 competes with the business of Gaussian, Inc. or will provide
 assistance to any competitor of Gaussian, Inc.  The licensee
 of this program is prohibited from giving any competitor of
 Gaussian, Inc. access to this program.  By using this program,
 the user acknowledges that Gaussian, Inc. is engaged in the
 business of creating and licensing software in the field of
 computational chemistry and represents and warrants to the
 licensee that it is not a competitor of Gaussian, Inc. and that
 it will not use this program in any manner prohibited above.
 ---------------------------------------------------------------
  

 Cite this work as:
 Gaussian 16, Revision C.01,
 M. J. Frisch, G. W. Trucks, H. B. Schlegel, G. E. Scuseria, 
 M. A. Robb, J. R. Cheeseman, G. Scalmani, V. Barone, 
 G. A. Petersson, H. Nakatsuji, X. Li, M. Caricato, A. V. Marenich, 
 J. Bloino, B. G. Janesko, R. Gomperts, B. Mennucci, H. P. Hratchian, 
 J. V. Ortiz, A. F. Izmaylov, J. L. Sonnenberg, D. Williams-Young, 
 F. Ding, F. Lipparini, F. Egidi, J. Goings, B. Peng, A. Petrone, 
 T. Henderson, D. Ranasinghe, V. G. Zakrzewski, J. Gao, N. Rega, 
 G. Zheng, W. Liang, M. Hada, M. Ehara, K. Toyota, R. Fukuda, 
 J. Hasegawa, M. Ishida, T. Nakajima, Y. Honda, O. Kitao, H. Nakai, 
 T. Vreven, K. Throssell, J. A. Montgomery, Jr., J. E. Peralta, 
 F. Ogliaro, M. J. Bearpark, J. J. Heyd, E. N. Brothers, K. N. Kudin, 
 V. N. Staroverov, T. A. Keith, R. Kobayashi, J. Normand, 
 K. Raghavachari, A. P. Rendell, J. C. Burant, S. S. Iyengar, 
 J. Tomasi, M. Cossi, J. M. Millam, M. Klene, C. Adamo, R. Cammi, 
 J. W. Ochterski, R. L. Martin, K. Morokuma, O. Farkas, 
 J. B. Foresman, and D. J. Fox, Gaussian, Inc., Wallingford CT, 2019.
 
 ******************************************
 Gaussian 16:  ES64L-G16RevC.01  3-Jul-2019
                 5-Dec-2024 
 ******************************************
 %nprocshared=8
 Will use up to    8 processors via shared memory.
 %mem=8GB
 -------------------------
 # freq b3lyp/6-31g(2df,p)
 -------------------------
 1/10=4,30=1,38=1/1,3;
 2/12=2,17=6,18=5,40=1/2;
 3/5=1,6=6,7=104,11=2,25=1,30=1,71=2,74=-5,140=1/1,2,3;
 4//1;
 5/5=2,38=5,98=1/2;
 8/6=4,10=90,11=11/1;
 11/6=1,8=1,9=11,15=111,16=1/1,2,10;
 10/6=1/2;
 6/7=2,8=2,9=2,10=2,28=1/1;
 7/8=1,10=1,25=1/1,2,3,16;
 1/10=4,30=1/3;
 99//99;
 -------------------------------------------------------------------
 energy: -15.614184499692 gnorm: 0.000439253721 xtb: 6.6.1 (8d0f1dd)
 -------------------------------------------------------------------
 Symbolic Z-matrix:
 Charge =  0 Multiplicity = 1
 C                    -0.5536    0.49951   0.00042 
 H                    -0.46755   1.14285   0.88943 
 H                    -0.46666   1.14346  -0.88808 
 C                     0.59428  -0.4998    0.00044 
 H                     0.54325  -1.13733  -0.88996 
 H                     0.54417  -1.13661   0.89142 
 F                     1.78859   0.18803  -0.00046 
 O                    -1.75012  -0.25683  -0.00045 
 H                    -2.49364   0.35171  -0.00023 
 

 GradGradGradGradGradGradGradGradGradGradGradGradGradGradGradGradGradGrad
 Berny optimization.
 Initialization pass.
 Trust Radius=3.00D-01 FncErr=1.00D-07 GrdErr=1.00D-07 EigMax=2.50D+02 EigMin=1.00D-04
 Number of steps in this run=      2 maximum allowed number of steps=      2.
 GradGradGradGradGradGradGradGradGradGradGradGradGradGradGradGradGradGrad

                          Input orientation:                          
 ---------------------------------------------------------------------
 Center     Atomic      Atomic             Coordinates (Angstroms)
 Number     Number       Type             X           Y           Z
 ---------------------------------------------------------------------
      1          6           0       -0.553599    0.499511    0.000416
      2          1           0       -0.467546    1.142848    0.889434
      3          1           0       -0.466664    1.143455   -0.888082
      4          6           0        0.594279   -0.499795    0.000443
      5          1           0        0.543245   -1.137333   -0.889961
      6          1           0        0.544168   -1.136605    0.891415
      7          9           0        1.788588    0.188029   -0.000455
      8          8           0       -1.750118   -0.256829   -0.000454
      9          1           0       -2.493637    0.351706   -0.000231
 ---------------------------------------------------------------------
                    Distance matrix (angstroms):
                    1          2          3          4          5
     1  C    0.000000
     2  H    1.100745   0.000000
     3  H    1.100750   1.777516   0.000000
     4  C    1.521919   2.148500   2.148336   0.000000
     5  H    2.162197   3.063849   2.494376   1.096302   0.000000
     6  H    2.162371   2.493888   3.063832   1.096298   1.781376
     7  F    2.362808   2.606477   2.605165   1.378215   2.024521
     8  O    1.415524   2.096661   2.096648   2.356954   2.612666
     9  H    1.945660   2.349990   2.350269   3.203167   3.497357
                    6          7          8          9
     6  H    0.000000
     7  F    2.024517   0.000000
     8  O    2.614036   3.566558   0.000000
     9  H    3.498337   4.285352   0.960799   0.000000
 Stoichiometry    C2H5FO
 Framework group  C1[X(C2H5FO)]
 Deg. of freedom    21
 Full point group                 C1      NOp   1
 Largest Abelian subgroup         C1      NOp   1
 Largest concise Abelian subgroup C1      NOp   1
                         Standard orientation:                         
 ---------------------------------------------------------------------
 Center     Atomic      Atomic             Coordinates (Angstroms)
 Number     Number       Type             X           Y           Z
 ---------------------------------------------------------------------
      1          6           0       -0.553599    0.499511    0.000416
      2          1           0       -0.467546    1.142848    0.889434
      3          1           0       -0.466664    1.143455   -0.888082
      4          6           0        0.594279   -0.499795    0.000443
      5          1           0        0.543245   -1.137333   -0.889961
      6          1           0        0.544168   -1.136605    0.891415
      7          9           0        1.788588    0.188029   -0.000455
      8          8           0       -1.750118   -0.256829   -0.000454
      9          1           0       -2.493637    0.351706   -0.000231
 ---------------------------------------------------------------------
 Rotational constants (GHZ):          31.2660683           3.9475871           3.6673853
 Standard basis: 6-31G(2df,p) (6D, 7F)
 There are   149 symmetry adapted cartesian basis functions of A   symmetry.
 There are   137 symmetry adapted basis functions of A   symmetry.
   137 basis functions,   211 primitive gaussians,   149 cartesian basis functions
    17 alpha electrons       17 beta electrons
       nuclear repulsion energy       128.0990119932 Hartrees.
 NAtoms=    9 NActive=    9 NUniq=    9 SFac= 1.00D+00 NAtFMM=   60 NAOKFM=F Big=F
 Integral buffers will be    131072 words long.
 Raffenetti 2 integral format.
 Two-electron integral symmetry is turned on.
 One-electron integrals computed using PRISM.
 NBasis=   137 RedAO= T EigKep=  1.26D-03  NBF=   137
 NBsUse=   137 1.00D-06 EigRej= -1.00D+00 NBFU=   137
 ExpMin= 1.61D-01 ExpMax= 7.00D+03 ExpMxC= 1.05D+03 IAcc=3 IRadAn=         5 AccDes= 0.00D+00
 Harris functional with IExCor=  402 and IRadAn=       5 diagonalized for initial guess.
 HarFok:  IExCor=  402 AccDes= 0.00D+00 IRadAn=         5 IDoV= 1 UseB2=F ITyADJ=14
 ICtDFT=  3500011 ScaDFX=  1.000000  1.000000  1.000000  1.000000
 FoFCou: FMM=F IPFlag=           0 FMFlag=      100000 FMFlg1=           0
         NFxFlg=           0 DoJE=T BraDBF=F KetDBF=T FulRan=T
         wScrn=  0.000000 ICntrl=       500 IOpCl=  0 I1Cent=   200000004 NGrid=           0
         NMat0=    1 NMatS0=      1 NMatT0=    0 NMatD0=    1 NMtDS0=    0 NMtDT0=    0
 Petite list used in FoFCou.
 Keep R1 ints in memory in canonical form, NReq=52495207.
 Requested convergence on RMS density matrix=1.00D-08 within 128 cycles.
 Requested convergence on MAX density matrix=1.00D-06.
 Requested convergence on             energy=1.00D-06.
 No special actions if energy rises.
 Integral accuracy reduced to 1.0D-05 until final iterations.
 Initial convergence to 1.0D-05 achieved.  Increase integral accuracy.
 SCF Done:  E(RB3LYP) =  -254.280889338     A.U. after   12 cycles
            NFock= 12  Conv=0.26D-08     -V/T= 2.0064
 DoSCS=F DFT=T ScalE2(SS,OS)=  1.000000  1.000000
 Range of M.O.s used for correlation:     1   137
 NBasis=   137 NAE=    17 NBE=    17 NFC=     0 NFV=     0
 NROrb=    137 NOA=    17 NOB=    17 NVA=   120 NVB=   120

 **** Warning!!: The largest alpha MO coefficient is  0.18598481D+02

 Symmetrizing basis deriv contribution to polar:
 IMax=3 JMax=2 DiffMx= 0.00D+00
 G2DrvN: will do    10 centers at a time, making    1 passes.
 Calling FoFCou, ICntrl=  3107 FMM=F I1Cent=   0 AccDes= 0.00D+00.
 End of G2Drv F.D. properties file   721 does not exist.
 End of G2Drv F.D. properties file   722 does not exist.
 End of G2Drv F.D. properties file   788 does not exist.
          IDoAtm=111111111
          Differentiating once with respect to electric field.
                with respect to dipole field.
          Differentiating once with respect to nuclear coordinates.
 Keep R1 ints in memory in canonical form, NReq=52475937.
          There are    30 degrees of freedom in the 1st order CPHF.  IDoFFX=6 NUNeed=     3.
     27 vectors produced by pass  0 Test12= 6.80D-15 3.33D-09 XBig12= 1.51D+01 1.57D+00.
 AX will form    27 AO Fock derivatives at one time.
     27 vectors produced by pass  1 Test12= 6.80D-15 3.33D-09 XBig12= 1.22D+00 2.42D-01.
     27 vectors produced by pass  2 Test12= 6.80D-15 3.33D-09 XBig12= 2.04D-02 2.96D-02.
     27 vectors produced by pass  3 Test12= 6.80D-15 3.33D-09 XBig12= 6.87D-05 1.58D-03.
     27 vectors produced by pass  4 Test12= 6.80D-15 3.33D-09 XBig12= 1.05D-07 5.95D-05.
     18 vectors produced by pass  5 Test12= 6.80D-15 3.33D-09 XBig12= 8.21D-11 1.42D-06.
      3 vectors produced by pass  6 Test12= 6.80D-15 3.33D-09 XBig12= 8.54D-14 4.56D-08.
 InvSVY:  IOpt=1 It=  1 EMax= 4.00D-15
 Solved reduced A of dimension   156 with    30 vectors.
 Isotropic polarizability for W=    0.000000       28.30 Bohr**3.
 End of Minotr F.D. properties file   721 does not exist.
 End of Minotr F.D. properties file   722 does not exist.
 End of Minotr F.D. properties file   788 does not exist.

 **********************************************************************

            Population analysis using the SCF Density.

 **********************************************************************

 Orbital symmetries:
       Occupied  (A) (A) (A) (A) (A) (A) (A) (A) (A) (A) (A) (A)
                 (A) (A) (A) (A) (A)
       Virtual   (A) (A) (A) (A) (A) (A) (A) (A) (A) (A) (A) (A)
                 (A) (A) (A) (A) (A) (A) (A) (A) (A) (A) (A) (A)
                 (A) (A) (A) (A) (A) (A) (A) (A) (A) (A) (A) (A)
                 (A) (A) (A) (A) (A) (A) (A) (A) (A) (A) (A) (A)
                 (A) (A) (A) (A) (A) (A) (A) (A) (A) (A) (A) (A)
                 (A) (A) (A) (A) (A) (A) (A) (A) (A) (A) (A) (A)
                 (A) (A) (A) (A) (A) (A) (A) (A) (A) (A) (A) (A)
                 (A) (A) (A) (A) (A) (A) (A) (A) (A) (A) (A) (A)
                 (A) (A) (A) (A) (A) (A) (A) (A) (A) (A) (A) (A)
                 (A) (A) (A) (A) (A) (A) (A) (A) (A) (A) (A) (A)
 The electronic state is 1-A.
 Alpha  occ. eigenvalues --  -24.66800 -19.14493 -10.25138 -10.23454  -1.18274
 Alpha  occ. eigenvalues --   -1.02660  -0.74680  -0.62096  -0.52912  -0.50043
 Alpha  occ. eigenvalues --   -0.46501  -0.45440  -0.42264  -0.36545  -0.32942
 Alpha  occ. eigenvalues --   -0.32233  -0.27775
 Alpha virt. eigenvalues --    0.06149   0.10837   0.14475   0.14970   0.15693
 Alpha virt. eigenvalues --    0.20044   0.21676   0.24799   0.42998   0.46781
 Alpha virt. eigenvalues --    0.49814   0.51662   0.53599   0.62690   0.65662
 Alpha virt. eigenvalues --    0.66055   0.69357   0.71853   0.78301   0.78383
 Alpha virt. eigenvalues --    0.79746   0.85738   0.88466   0.88718   0.91674
 Alpha virt. eigenvalues --    0.93832   0.94958   0.99823   1.04606   1.06657
 Alpha virt. eigenvalues --    1.09262   1.11018   1.24578   1.26803   1.28759
 Alpha virt. eigenvalues --    1.37776   1.40756   1.41727   1.51219   1.56436
 Alpha virt. eigenvalues --    1.61462   1.61700   1.64640   1.72678   1.74090
 Alpha virt. eigenvalues --    1.90238   1.93016   2.02826   2.15902   2.18189
 Alpha virt. eigenvalues --    2.24414   2.42385   2.48173   2.52551   2.53290
 Alpha virt. eigenvalues --    2.58781   2.72460   2.74546   2.78952   2.85246
 Alpha virt. eigenvalues --    2.87646   2.88268   2.90422   2.96233   3.05813
 Alpha virt. eigenvalues --    3.16170   3.28500   3.30747   3.36861   3.39623
 Alpha virt. eigenvalues --    3.42086   3.44598   3.56713   3.68058   3.68690
 Alpha virt. eigenvalues --    3.85643   3.88456   3.90400   4.12017   4.17623
 Alpha virt. eigenvalues --    4.19403   4.29107   4.39766   4.41177   4.42068
 Alpha virt. eigenvalues --    4.44662   4.49797   4.49886   4.52236   4.54364
 Alpha virt. eigenvalues --    4.62763   4.63332   4.66838   4.70413   4.71982
 Alpha virt. eigenvalues --    4.78292   4.80986   4.86079   4.96573   5.22715
 Alpha virt. eigenvalues --    5.31117   5.39015   5.46570   5.48442   5.80383
 Alpha virt. eigenvalues --    5.91660   5.97324   6.07536   6.66737   6.67722
 Alpha virt. eigenvalues --    6.79222   6.80051   7.02255   7.25285   7.30560
 Alpha virt. eigenvalues --    7.35280   9.54469  11.08747  11.82917  13.14290
          Condensed to atoms (all electrons):
               1          2          3          4          5          6
     1  C    4.893426   0.358414   0.358404   0.354243  -0.041317  -0.041288
     2  H    0.358414   0.664370  -0.059752  -0.031939   0.007161  -0.009252
     3  H    0.358404  -0.059752   0.664365  -0.031982  -0.009238   0.007161
     4  C    0.354243  -0.031939  -0.031982   4.688908   0.354410   0.354419
     5  H   -0.041317   0.007161  -0.009238   0.354410   0.646635  -0.053919
     6  H   -0.041288  -0.009252   0.007161   0.354419  -0.053919   0.646659
     7  F   -0.032968   0.003295   0.003312   0.374842  -0.020829  -0.020830
     8  O    0.295751  -0.027621  -0.027615  -0.025305   0.006149   0.006129
     9  H   -0.044212  -0.003513  -0.003509   0.005401  -0.000213  -0.000214
               7          8          9
     1  C   -0.032968   0.295751  -0.044212
     2  H    0.003295  -0.027621  -0.003513
     3  H    0.003312  -0.027615  -0.003509
     4  C    0.374842  -0.025305   0.005401
     5  H   -0.020829   0.006149  -0.000213
     6  H   -0.020830   0.006129  -0.000214
     7  F    8.847330   0.000614  -0.000045
     8  O    0.000614   7.883712   0.304825
     9  H   -0.000045   0.304825   0.446654
 Mulliken charges:
               1
     1  C   -0.100453
     2  H    0.098837
     3  H    0.098853
     4  C   -0.042997
     5  H    0.111161
     6  H    0.111136
     7  F   -0.154722
     8  O   -0.416639
     9  H    0.294825
 Sum of Mulliken charges =  -0.00000
 Mulliken charges with hydrogens summed into heavy atoms:
               1
     1  C    0.097237
     4  C    0.179299
     7  F   -0.154722
     8  O   -0.121815
 APT charges:
               1
     1  C    0.464708
     2  H   -0.079800
     3  H   -0.079783
     4  C    0.571214
     5  H   -0.049391
     6  H   -0.049428
     7  F   -0.460160
     8  O   -0.562281
     9  H    0.244920
 Sum of APT charges =   0.00000
 APT charges with hydrogens summed into heavy atoms:
               1
     1  C    0.305126
     4  C    0.472396
     7  F   -0.460160
     8  O   -0.317361
 Electronic spatial extent (au):  <R**2>=            326.4316
 Charge=             -0.0000 electrons
 Dipole moment (field-independent basis, Debye):
    X=             -1.5655    Y=              0.7764    Z=              0.0020  Tot=              1.7475
 Quadrupole moment (field-independent basis, Debye-Ang):
   XX=            -24.0013   YY=            -22.9294   ZZ=            -23.1045
   XY=             -4.0300   XZ=             -0.0000   YZ=             -0.0004
 Traceless Quadrupole moment (field-independent basis, Debye-Ang):
   XX=             -0.6562   YY=              0.4157   ZZ=              0.2406
   XY=             -4.0300   XZ=             -0.0000   YZ=             -0.0004
 Octapole moment (field-independent basis, Debye-Ang**2):
  XXX=            -13.4870  YYY=              0.5223  ZZZ=             -0.0030  XYY=              2.1017
  XXY=              6.0715  XXZ=              0.0017  XZZ=              2.7430  YZZ=              0.1530
  YYZ=             -0.0023  XYZ=              0.0001
 Hexadecapole moment (field-independent basis, Debye-Ang**3):
 XXXX=           -217.0813 YYYY=            -62.5186 ZZZZ=            -33.1037 XXXY=            -12.5383
 XXXZ=             -0.0001 YYYX=              2.5745 YYYZ=             -0.0003 ZZZX=             -0.0036
 ZZZY=             -0.0010 XXYY=            -51.4657 XXZZ=            -48.7130 YYZZ=            -14.5527
 XXYZ=             -0.0016 YYXZ=             -0.0008 ZZXY=              0.2447
 N-N= 1.280990119932D+02 E-N=-8.558694958206D+02  KE= 2.526715314315D+02
  Exact polarizability:      31.162      -0.621      27.932       0.001       0.001      25.817
 Approx polarizability:      39.549       1.391      37.949      -0.000       0.001      35.046
 Calling FoFJK, ICntrl=    100127 FMM=F ISym2X=0 I1Cent= 0 IOpClX= 0 NMat=1 NMatS=1 NMatT=0.
 Full mass-weighted force constant matrix:
 Low frequencies ---   -8.8414    0.0011    0.0013    0.0013    2.0107   15.5718
 Low frequencies ---  119.6350  217.8227  281.1431
 Diagonal vibrational polarizability:
        7.4412361       2.4068084      98.5342287
 Harmonic frequencies (cm**-1), IR intensities (KM/Mole), Raman scattering
 activities (A**4/AMU), depolarization ratios for plane and unpolarized
 incident light, reduced masses (AMU), force constants (mDyne/A),
 and normal coordinates:
                      1                      2                      3
                      A                      A                      A
 Frequencies --    119.6319               217.8202               281.1429
 Red. masses --      3.3773                 1.0783                 3.8710
 Frc consts  --      0.0285                 0.0301                 0.1803
 IR Inten    --     21.2188               102.7467                10.9085
  Atom  AN      X      Y      Z        X      Y      Z        X      Y      Z
     1   6     0.00  -0.00  -0.21    -0.00   0.00  -0.06    -0.11   0.24   0.00
     2   1     0.22   0.15  -0.34     0.01   0.01  -0.07    -0.29   0.24   0.01
     3   1    -0.22  -0.15  -0.34    -0.01  -0.01  -0.07    -0.29   0.24  -0.01
     4   6    -0.00  -0.00  -0.23    -0.00   0.00  -0.00    -0.11   0.23  -0.00
     5   1     0.21   0.18  -0.38     0.04  -0.03   0.02    -0.30   0.23   0.01
     6   1    -0.21  -0.18  -0.38    -0.04   0.03   0.02    -0.30   0.23  -0.01
     7   9     0.00   0.00   0.18     0.00  -0.00   0.02     0.10  -0.18  -0.00
     8   8    -0.00  -0.00   0.22     0.00  -0.00  -0.04     0.13  -0.17   0.00
     9   1     0.00   0.00  -0.12    -0.00  -0.00   0.99    -0.11  -0.45  -0.00
                      4                      5                      6
                      A                      A                      A
 Frequencies --    470.7041               821.6972              1019.1987
 Red. masses --      7.9543                 1.0838                 2.5604
 Frc consts  --      1.0384                 0.4311                 1.5670
 IR Inten    --      1.2962                 0.8530                39.4185
  Atom  AN      X      Y      Z        X      Y      Z        X      Y      Z
     1   6    -0.23  -0.10   0.00     0.00  -0.00  -0.05     0.13  -0.21  -0.00
     2   1    -0.33  -0.08  -0.01     0.21  -0.39   0.22     0.08  -0.20  -0.00
     3   1    -0.33  -0.08   0.01    -0.21   0.39   0.22     0.08  -0.20   0.00
     4   6     0.20   0.12   0.00    -0.00  -0.00  -0.06    -0.08   0.26   0.00
     5   1     0.28   0.11   0.01     0.21  -0.40   0.22    -0.22   0.26   0.01
     6   1     0.28   0.11  -0.01    -0.21   0.40   0.22    -0.22   0.26  -0.01
     7   9     0.40  -0.04  -0.00    -0.00  -0.00   0.01    -0.02  -0.04   0.00
     8   8    -0.43   0.02  -0.00     0.00   0.00   0.02    -0.02  -0.04  -0.00
     9   1    -0.23   0.27   0.00     0.00   0.00  -0.04     0.47   0.56   0.00
                      7                      8                      9
                      A                      A                      A
 Frequencies --   1093.8280              1099.0514              1175.5610
 Red. masses --      5.5974                 6.0047                 1.5292
 Frc consts  --      3.9458                 4.2734                 1.2451
 IR Inten    --     36.9872               130.7675                 0.0905
  Atom  AN      X      Y      Z        X      Y      Z        X      Y      Z
     1   6     0.39   0.26   0.00     0.07   0.11  -0.00    -0.00  -0.00   0.16
     2   1     0.47   0.16   0.03    -0.17   0.18  -0.02     0.34   0.41  -0.17
     3   1     0.47   0.16  -0.03    -0.17   0.18   0.02    -0.34  -0.41  -0.17
     4   6    -0.07  -0.08   0.00     0.46   0.18  -0.00    -0.00   0.00  -0.13
     5   1    -0.24  -0.01  -0.03     0.49   0.10   0.03    -0.14  -0.35   0.13
     6   1    -0.24  -0.01   0.03     0.49   0.10  -0.03     0.14   0.35   0.13
     7   9     0.03   0.05  -0.00    -0.29  -0.18   0.00    -0.00  -0.00   0.03
     8   8    -0.29  -0.22  -0.00    -0.09  -0.04  -0.00     0.00   0.00  -0.05
     9   1    -0.17  -0.05  -0.00    -0.01   0.07   0.00    -0.00  -0.00   0.00
                     10                     11                     12
                      A                      A                      A
 Frequencies --   1231.7258              1247.0068              1297.6390
 Red. masses --      1.1562                 1.1807                 1.1025
 Frc consts  --      1.0335                 1.0818                 1.0938
 IR Inten    --      2.8282                39.9035                 0.0807
  Atom  AN      X      Y      Z        X      Y      Z        X      Y      Z
     1   6     0.00   0.00  -0.04     0.01   0.06   0.00     0.00   0.00   0.07
     2   1    -0.44  -0.07   0.04    -0.43   0.13  -0.00    -0.46   0.17  -0.02
     3   1     0.44   0.07   0.04    -0.43   0.13   0.00     0.46  -0.17  -0.02
     4   6    -0.00   0.00  -0.09     0.01  -0.09  -0.00     0.00  -0.00  -0.06
     5   1    -0.49  -0.22   0.08    -0.09  -0.09  -0.00     0.49  -0.14   0.02
     6   1     0.49   0.22   0.08    -0.09  -0.08   0.00    -0.49   0.14   0.02
     7   9     0.00   0.00   0.04     0.01   0.02   0.00    -0.00  -0.00  -0.01
     8   8    -0.00  -0.00   0.03     0.01  -0.04  -0.00    -0.00  -0.00   0.01
     9   1    -0.00  -0.00   0.01     0.49   0.56   0.00     0.00   0.00   0.01
                     13                     14                     15
                      A                      A                      A
 Frequencies --   1397.0168              1476.1350              1520.1616
 Red. masses --      1.2847                 1.5404                 1.0821
 Frc consts  --      1.4773                 1.9775                 1.4733
 IR Inten    --      7.6274                 4.0740                 0.0179
  Atom  AN      X      Y      Z        X      Y      Z        X      Y      Z
     1   6    -0.06   0.06  -0.00     0.17  -0.06   0.00     0.02   0.03   0.00
     2   1     0.23   0.01   0.01    -0.51   0.11  -0.07    -0.11  -0.25   0.20
     3   1     0.23   0.01  -0.01    -0.51   0.11   0.07    -0.11  -0.25  -0.20
     4   6    -0.12   0.03   0.00    -0.11   0.03   0.00    -0.02  -0.07   0.00
     5   1     0.60  -0.09   0.04     0.32  -0.10   0.07     0.14   0.47  -0.37
     6   1     0.60  -0.09  -0.04     0.32  -0.10  -0.07     0.14   0.47   0.37
     7   9     0.01  -0.02   0.00     0.00  -0.01   0.00    -0.00  -0.01   0.00
     8   8     0.01  -0.05  -0.00    -0.01   0.05   0.00     0.00   0.01   0.00
     9   1     0.25   0.27   0.00    -0.28  -0.30  -0.00    -0.01  -0.02  -0.00
                     16                     17                     18
                      A                      A                      A
 Frequencies --   1534.1629              2980.2122              3012.3673
 Red. masses --      1.0869                 1.0544                 1.1067
 Frc consts  --      1.5072                 5.5175                 5.9171
 IR Inten    --      3.7298                49.1746                38.1865
  Atom  AN      X      Y      Z        X      Y      Z        X      Y      Z
     1   6    -0.01  -0.07  -0.00     0.00   0.06  -0.00     0.00  -0.00  -0.09
     2   1     0.10   0.48  -0.38    -0.05  -0.39  -0.58     0.04   0.41   0.56
     3   1     0.10   0.48   0.38    -0.05  -0.39   0.58    -0.04  -0.41   0.56
     4   6    -0.01  -0.04   0.00     0.00  -0.00  -0.00     0.00  -0.00   0.02
     5   1     0.03   0.27  -0.21     0.00   0.02   0.03    -0.01  -0.08  -0.11
     6   1     0.03   0.27   0.21     0.00   0.02  -0.03     0.01   0.08  -0.11
     7   9     0.00  -0.00  -0.00    -0.00  -0.00   0.00    -0.00  -0.00   0.00
     8   8    -0.00  -0.01  -0.00     0.00   0.00   0.00    -0.00   0.00   0.00
     9   1     0.02   0.01   0.00     0.00   0.01   0.00    -0.00  -0.00   0.00
                     19                     20                     21
                      A                      A                      A
 Frequencies --   3033.5981              3085.1877              3843.8789
 Red. masses --      1.0551                 1.1106                 1.0666
 Frc consts  --      5.7210                 6.2284                 9.2856
 IR Inten    --     40.6863                55.4797                29.2037
  Atom  AN      X      Y      Z        X      Y      Z        X      Y      Z
     1   6    -0.00  -0.00   0.00     0.00  -0.00  -0.02     0.00   0.00   0.00
     2   1     0.00   0.02   0.03     0.00   0.08   0.11     0.00   0.00  -0.00
     3   1     0.00   0.02  -0.03    -0.00  -0.08   0.11     0.00   0.00   0.00
     4   6    -0.00  -0.07  -0.00    -0.00  -0.00  -0.09     0.00  -0.00   0.00
     5   1     0.03   0.39   0.59     0.02   0.40   0.56     0.00  -0.00  -0.00
     6   1     0.03   0.39  -0.59    -0.02  -0.40   0.56     0.00  -0.00   0.00
     7   9    -0.00  -0.00   0.00     0.00   0.00   0.00     0.00   0.00  -0.00
     8   8     0.00   0.00   0.00    -0.00   0.00   0.00    -0.05   0.04   0.00
     9   1     0.00   0.00   0.00     0.00  -0.00   0.00     0.78  -0.62  -0.00

 -------------------
 - Thermochemistry -
 -------------------
 Temperature   298.150 Kelvin.  Pressure   1.00000 Atm.
 Atom     1 has atomic number  6 and mass  12.00000
 Atom     2 has atomic number  1 and mass   1.00783
 Atom     3 has atomic number  1 and mass   1.00783
 Atom     4 has atomic number  6 and mass  12.00000
 Atom     5 has atomic number  1 and mass   1.00783
 Atom     6 has atomic number  1 and mass   1.00783
 Atom     7 has atomic number  9 and mass  18.99840
 Atom     8 has atomic number  8 and mass  15.99491
 Atom     9 has atomic number  1 and mass   1.00783
 Molecular mass:    64.03244 amu.
 Principal axes and moments of inertia in atomic units:
                           1         2         3
     Eigenvalues --    57.72204 457.17578 492.10569
           X            0.99951  -0.03131   0.00001
           Y            0.03131   0.99951  -0.00000
           Z           -0.00001   0.00000   1.00000
 This molecule is an asymmetric top.
 Rotational symmetry number  1.
 Rotational temperatures (Kelvin)      1.50053     0.18945     0.17601
 Rotational constants (GHZ):          31.26607     3.94759     3.66739
 Zero-point vibrational energy     191149.7 (Joules/Mol)
                                   45.68587 (Kcal/Mol)
 Warning -- explicit consideration of   4 degrees of freedom as
           vibrations may cause significant error
 Vibrational temperatures:    172.12   313.39   404.50   677.24  1182.24
          (Kelvin)           1466.40  1573.77  1581.29  1691.37  1772.18
                             1794.16  1867.01  2010.00  2123.83  2187.17
                             2207.32  4287.86  4334.12  4364.67  4438.90
                             5530.48
 
 Zero-point correction=                           0.072805 (Hartree/Particle)
 Thermal correction to Energy=                    0.077797
 Thermal correction to Enthalpy=                  0.078741
 Thermal correction to Gibbs Free Energy=         0.045286
 Sum of electronic and zero-point Energies=           -254.208084
 Sum of electronic and thermal Energies=              -254.203092
 Sum of electronic and thermal Enthalpies=            -254.202148
 Sum of electronic and thermal Free Energies=         -254.235603
 
                     E (Thermal)             CV                S
                      KCal/Mol        Cal/Mol-Kelvin    Cal/Mol-Kelvin
 Total                   48.818             15.327             70.412
 Electronic               0.000              0.000              0.000
 Translational            0.889              2.981             38.389
 Rotational               0.889              2.981             24.078
 Vibrational             47.041              9.366              7.945
 Vibration     1          0.609              1.933              3.106
 Vibration     2          0.646              1.814              1.977
 Vibration     3          0.681              1.709              1.527
 Vibration     4          0.828              1.315              0.736
                       Q            Log10(Q)             Ln(Q)
 Total Bot       0.147845D-20        -20.830194        -47.963295
 Total V=0       0.454757D+13         12.657779         29.145614
 Vib (Bot)       0.179955D-32        -32.744835        -75.397770
 Vib (Bot)    1  0.170836D+01          0.232580          0.535535
 Vib (Bot)    2  0.908931D+00         -0.041469         -0.095486
 Vib (Bot)    3  0.683444D+00         -0.165297         -0.380610
 Vib (Bot)    4  0.358131D+00         -0.445958         -1.026856
 Vib (V=0)       0.553526D+01          0.743138          1.711139
 Vib (V=0)    1  0.228003D+01          0.357940          0.824188
 Vib (V=0)    2  0.153738D+01          0.186781          0.430079
 Vib (V=0)    3  0.134682D+01          0.129308          0.297743
 Vib (V=0)    4  0.111503D+01          0.047285          0.108879
 Electronic      0.100000D+01          0.000000          0.000000
 Translational   0.201397D+08          7.304054         16.818206
 Rotational      0.407931D+05          4.610587         10.616269
 ***** Axes restored to original set *****
 -------------------------------------------------------------------
 Center     Atomic                   Forces (Hartrees/Bohr)
 Number     Number              X              Y              Z
 -------------------------------------------------------------------
      1        6           0.000676214   -0.000105679   -0.000008296
      2        1          -0.000033368   -0.000044679   -0.000016610
      3        1          -0.000032766   -0.000045196    0.000016266
      4        6          -0.000389117    0.000390810   -0.000010093
      5        1           0.000026242   -0.000021711    0.000009802
      6        1           0.000026544   -0.000021766   -0.000009472
      7        9           0.000029793   -0.000017157    0.000009644
      8        8          -0.000266200   -0.000207200    0.000007465
      9        1          -0.000037342    0.000072579    0.000001293
 -------------------------------------------------------------------
 Cartesian Forces:  Max     0.000676214 RMS     0.000182962

 GradGradGradGradGradGradGradGradGradGradGradGradGradGradGradGradGradGrad
 Berny optimization.
 Search for a local minimum.
 Step number   1 out of a maximum of    2
 All quantities printed in internal units (Hartrees-Bohrs-Radians)
 Second derivative matrix not updated -- analytic derivatives used.
 ITU=  0
     Eigenvalues ---    0.00228   0.00259   0.01407   0.03030   0.04990
     Eigenvalues ---    0.06686   0.07626   0.08291   0.11900   0.11965
     Eigenvalues ---    0.15379   0.17165   0.21579   0.31094   0.47314
     Eigenvalues ---    0.66968   0.73937   0.74972   0.83126   0.84130
     Eigenvalues ---    1.04678
 Angle between quadratic step and forces=  68.70 degrees.
 Linear search not attempted -- first point.
 B after Tr=    -0.000119    0.000045    0.000323
         Rot=    1.000000   -0.000003    0.000026   -0.000027 Ang=  -0.00 deg.
 Variable       Old X    -DE/DX   Delta X   Delta X   Delta X     New X
                                 (Linear)    (Quad)   (Total)
    X1       -1.04615   0.00068   0.00000   0.00099   0.00082  -1.04533
    Y1        0.94394  -0.00011   0.00000  -0.00071  -0.00072   0.94322
    Z1        0.00079  -0.00001   0.00000  -0.00059  -0.00031   0.00047
    X2       -0.88353  -0.00003   0.00000   0.00090   0.00057  -0.88296
    Y2        2.15967  -0.00004   0.00000  -0.00033  -0.00034   2.15933
    Z2        1.68079  -0.00002   0.00000  -0.00107  -0.00077   1.68001
    X3       -0.88187  -0.00003   0.00000  -0.00071  -0.00086  -0.88273
    Y3        2.16082  -0.00005   0.00000  -0.00157  -0.00156   2.15926
    Z3       -1.67823   0.00002   0.00000  -0.00115  -0.00086  -1.67909
    X4        1.12302  -0.00039   0.00000  -0.00045  -0.00051   1.12251
    Y4       -0.94448   0.00039   0.00000   0.00048   0.00059  -0.94389
    Z4        0.00084  -0.00001   0.00000  -0.00054  -0.00017   0.00067
    X5        1.02658   0.00003   0.00000   0.00132   0.00140   1.02799
    Y5       -2.14925  -0.00002   0.00000   0.00065   0.00076  -2.14849
    Z5       -1.68178   0.00001   0.00000  -0.00081  -0.00045  -1.68224
    X6        1.02833   0.00003   0.00000  -0.00053  -0.00062   1.02771
    Y6       -2.14787  -0.00002   0.00000  -0.00067  -0.00058  -2.14845
    Z6        1.68453  -0.00001   0.00000  -0.00131  -0.00095   1.68358
    X7        3.37994   0.00003   0.00000  -0.00020  -0.00034   3.37960
    Y7        0.35532  -0.00002   0.00000   0.00046   0.00069   0.35601
    Z7       -0.00086   0.00001   0.00000   0.00120   0.00170   0.00084
    X8       -3.30724  -0.00027   0.00000  -0.00082  -0.00091  -3.30815
    Y8       -0.48534  -0.00021   0.00000  -0.00022  -0.00036  -0.48569
    Z8       -0.00086   0.00001   0.00000   0.00105   0.00120   0.00035
    X9       -4.71229  -0.00004   0.00000   0.00060   0.00044  -4.71185
    Y9        0.66463   0.00007   0.00000   0.00174   0.00153   0.66615
    Z9       -0.00044   0.00000   0.00000   0.00053   0.00061   0.00018
         Item               Value     Threshold  Converged?
 Maximum Force            0.000676     0.000450     NO 
 RMS     Force            0.000183     0.000300     YES
 Maximum Displacement     0.001698     0.001800     YES
 RMS     Displacement     0.000861     0.001200     YES
 Predicted change in Energy=-7.971884D-07
 GradGradGradGradGradGradGradGradGradGradGradGradGradGradGradGradGradGrad


 ----------------------------------------------------------------------

 Electric dipole moment (input orientation):
 (Debye = 10**-18 statcoulomb cm , SI units = C m)
                  (au)            (Debye)         (10**-30 SI)
   Tot        0.687514D+00      0.174749D+01      0.582899D+01
   x         -0.615925D+00     -0.156552D+01     -0.522203D+01
   y          0.305471D+00      0.776429D+00      0.258989D+01
   z          0.779910D-03      0.198233D-02      0.661235D-02

 Dipole polarizability, Alpha (input orientation).
 (esu units = cm**3 , SI units = C**2 m**2 J**-1)
 Alpha(0;0):
               (au)            (10**-24 esu)      (10**-40 SI)
   iso        0.283038D+02      0.419420D+01      0.466667D+01
   aniso      0.478525D+01      0.709102D+00      0.788982D+00
   xx         0.311624D+02      0.461779D+01      0.513798D+01
   yx        -0.621236D+00     -0.920577D-01     -0.102428D+00
   yy         0.279321D+02      0.413911D+01      0.460538D+01
   zx         0.717462D-03      0.106317D-03      0.118293D-03
   zy         0.570530D-03      0.845438D-04      0.940676D-04
   zz         0.258170D+02      0.382568D+01      0.425665D+01

 ----------------------------------------------------------------------

 Dipole orientation:
     6          0.16853348          0.34151041          1.35662058
     1          2.18921758          0.63572330          1.75300643
     1         -0.81924448          2.12975876          1.74821246
     6         -0.15204666         -0.31209774         -1.42572646
     1         -2.15759580         -0.57003789         -1.87653176
     1          0.85908057         -2.06393281         -1.87366439
     9          0.81082735          1.62948828         -2.87011963
     8         -0.84964117         -1.70419671          2.74722344
     1         -0.67069742         -1.33982048          4.51690856

 Electric dipole moment (dipole orientation):
 (Debye = 10**-18 statcoulomb cm , SI units = C m)
                  (au)            (Debye)         (10**-30 SI)
   Tot        0.687514D+00      0.174749D+01      0.582899D+01
   x          0.000000D+00      0.000000D+00      0.000000D+00
   y          0.000000D+00      0.000000D+00      0.000000D+00
   z          0.687514D+00      0.174749D+01      0.582899D+01

 Dipole polarizability, Alpha (dipole orientation).
 (esu units = cm**3 , SI units = C**2 m**2 J**-1)
 Alpha(0;0):
               (au)            (10**-24 esu)      (10**-40 SI)
   iso        0.283038D+02      0.419420D+01      0.466667D+01
   aniso      0.478525D+01      0.709102D+00      0.788982D+00
   xx         0.262643D+02      0.389197D+01      0.433040D+01
   yx         0.900016D+00      0.133369D+00      0.148393D+00
   yy         0.276280D+02      0.409404D+01      0.455524D+01
   zx        -0.409891D+00     -0.607395D-01     -0.675819D-01
   zy        -0.812309D+00     -0.120372D+00     -0.133932D+00
   zz         0.310193D+02      0.459658D+01      0.511438D+01

 ----------------------------------------------------------------------
 Unable to Open any file for archive entry.
 1\1\GINC-COMPUTE-2-0\Freq\RB3LYP\6-31G(2df,p)\C2H5F1O1\JINGDAN2\05-Dec
 -2024\0\\# freq b3lyp/6-31g(2df,p)\\energy: -15.614184499692 gnorm: 0.
 000439253721 xtb: 6.6.1 (8d0f1dd)\\0,1\C,-0.553599,0.499511,0.000416\H
 ,-0.467546,1.142848,0.889434\H,-0.466664,1.143455,-0.888082\C,0.594279
 ,-0.499795,0.000443\H,0.543245,-1.137333,-0.889961\H,0.544168,-1.13660
 5,0.891415\F,1.788588,0.188029,-0.000455\O,-1.750118,-0.256829,-0.0004
 54\H,-2.493637,0.351706,-0.000231\\Version=ES64L-G16RevC.01\State=1-A\
 HF=-254.2808893\RMSD=2.595e-09\RMSF=1.830e-04\ZeroPoint=0.0728051\Ther
 mal=0.0777969\ETot=-254.2030924\HTot=-254.2021482\GTot=-254.2356031\Di
 pole=-0.6159246,0.3054709,0.0007799\DipoleDeriv=0.6523951,0.2056073,0.
 0000957,0.2905446,0.3378868,0.0001319,0.0001699,0.0001052,0.4038428,-0
 .0443698,-0.0065973,-0.0069102,-0.0356296,-0.0737934,-0.0939537,-0.023
 648,-0.124054,-0.1212373,-0.0443749,-0.0067878,0.0070248,-0.0357468,-0
 .0739074,0.0939264,0.0237339,0.1240362,-0.1210653,0.8105196,0.178746,-
 0.0001727,0.2011511,0.4869899,-0.0002193,-0.00025,-0.0001664,0.4161329
 ,-0.0098597,0.0048815,0.0112816,-0.0059432,-0.0459781,-0.0730533,-0.00
 4182,-0.1095474,-0.0923338,-0.0099194,0.00506,-0.0113914,-0.005833,-0.
 0458801,0.073059,0.0040889,0.1095541,-0.0924842,-0.7735823,-0.1950213,
 0.0002405,-0.2327698,-0.3707668,0.0001818,0.000344,0.0001885,-0.236131
 8,-0.8098878,-0.2396829,-0.0001822,-0.2479368,-0.3881849,0.0000182,-0.
 0002491,-0.0000212,-0.48877,0.2290792,0.0537944,0.0000139,0.0721636,0.
 1736341,-0.000091,-0.0000076,-0.0000949,0.3320466\Polar=31.1623953,-0.
 6212361,27.9321179,0.0007175,0.0005705,25.8169974\Quadrupole=-0.487885
 ,0.3090369,0.1788481,-2.9962197,-0.0000014,-0.0002635\PG=C01 [X(C2H5F1
 O1)]\NImag=0\\0.48315157,-0.00649032,0.54735696,-0.00008472,0.00001437
 ,0.58682117,-0.05090244,-0.00147069,-0.00625481,0.05915355,-0.00303792
 ,-0.12503274,-0.10630633,0.01206850,0.14217379,-0.00636308,-0.10943248
 ,-0.21948940,0.01199753,0.12377535,0.23039392,-0.05090403,-0.00157387,
 0.00642028,0.00370681,0.00143951,0.00048112,0.05917846,-0.00313835,-0.
 12518361,0.10636280,0.00145545,0.01063072,-0.01478185,0.01220079,0.142
 34475,0.00652566,0.10948359,-0.21932299,-0.00045569,0.01480419,-0.0225
 4194,-0.01215397,-0.12381981,0.23019572,-0.11775096,0.07092219,-0.0000
 1298,0.00132555,-0.00007138,-0.00145245,0.00132948,-0.00008408,0.00145
 001,0.47469696,0.07275433,-0.15216075,0.00000114,0.01644096,-0.0155095
 6,0.00014079,0.01644748,-0.01552804,-0.00012616,0.00780033,0.54830599,
 0.00000050,-0.00000687,-0.08528631,0.02241907,-0.02185704,-0.00037536,
 -0.02240535,0.02186260,-0.00038607,0.00009410,0.00000242,0.61819428,0.
 00152413,0.01600074,0.02185245,-0.00457710,0.00319237,-0.00029402,0.00
 123182,-0.00092000,-0.00050300,-0.04983238,0.00307274,0.00246309,0.059
 77022,0.00156082,-0.01410126,-0.02160403,0.00323219,-0.00238523,0.0001
 8627,-0.00101303,0.00096958,0.00011444,0.00009655,-0.12937752,-0.11139
 538,0.00858841,0.14534259,-0.00165288,0.00095820,0.00037393,-0.0002288
 6,0.00028794,0.00162635,0.00048063,-0.00012212,0.00123932,-0.00268071,
 -0.11669704,-0.23115768,0.00672851,0.12999744,0.23981072,0.00151885,0.
 01599052,-0.02186638,0.00123345,-0.00092158,0.00050389,-0.00457762,0.0
 0319353,0.00029199,-0.04983627,0.00318543,-0.00265263,0.00406755,0.001
 42610,0.00100460,0.05975403,0.00157327,-0.01407806,0.02159892,-0.00101
 457,0.00097005,-0.00011430,0.00323036,-0.00238526,-0.00018250,0.000211
 01,-0.12918658,0.11131863,0.00140962,0.01126854,-0.01496707,0.00844773
 ,0.14512611,0.00165610,-0.00096988,0.00038141,-0.00048136,0.00012189,0
 .00124134,0.00023034,-0.00029164,0.00162610,0.00249507,0.11662017,-0.2
 3135158,-0.00102976,0.01494080,-0.02068540,-0.00655455,-0.12993184,0.2
 4004224,-0.04090339,-0.03194394,0.00002295,0.00241400,-0.00014572,0.00
 140530,0.00242118,-0.00015881,-0.00140306,-0.21851078,-0.08747075,0.00
 010280,-0.01502591,-0.01349640,-0.00471915,-0.01499596,-0.01347666,0.0
 0475568,0.29783381,0.00766316,0.01211655,-0.00000220,-0.00150647,0.002
 34345,0.00093415,-0.00150342,0.00235145,-0.00093927,-0.08959600,-0.119
 18746,0.00006740,-0.03003355,-0.01347608,-0.00012444,-0.03000928,-0.01
 346688,0.00017370,0.13864441,0.12985404,0.00001137,0.00001608,0.002073
 93,-0.00120286,0.00178010,0.00046222,0.00119611,-0.00178574,0.00046376
 ,0.00011738,0.00006934,-0.07077778,-0.02792416,-0.01361209,0.00837389,
 0.02797326,0.01364584,0.00832728,-0.00016857,-0.00010983,0.04863739,-0
 .19334339,-0.08744459,-0.00008630,-0.01442313,-0.01321354,-0.00547103,
 -0.01445213,-0.01323875,0.00543972,-0.03799351,-0.02537275,-0.00001961
 ,0.00233990,-0.00027697,0.00090203,0.00233485,-0.00026626,-0.00090518,
 -0.01103473,0.00534143,-0.00000183,0.58196874,-0.04173499,-0.14056650,
 -0.00006393,-0.02847986,-0.01330476,-0.00029357,-0.02850174,-0.0133136
 7,0.00025236,0.01256622,0.01541763,0.00001278,-0.00122809,0.00159466,0
 .00043122,-0.00123006,0.00158828,-0.00042911,0.00996814,-0.00101869,-0
 .00000528,-0.13194878,0.39574123,-0.00005908,-0.00007856,-0.06393853,-
 0.02514670,-0.01363962,0.00826650,0.02510313,0.01360949,0.00831078,-0.
 00000945,-0.00000342,0.00192910,-0.00116538,0.00110212,0.00031740,0.00
 117088,-0.00109888,0.00031762,0.00000549,-0.00000151,0.00170236,0.0000
 4073,0.00021056,0.04418046,-0.03239033,0.02600995,0.00000950,0.0020693
 1,0.00068975,-0.00080727,0.00206603,0.00069022,0.00080835,-0.00342809,
 -0.00685777,-0.00000199,0.00050177,-0.00011769,0.00016583,0.00050112,-
 0.00011449,-0.00016635,-0.00219822,0.00099971,-0.00000070,-0.31539660,
 0.21058917,0.00006038,0.34827500,-0.02915000,0.01164941,-0.00000074,-0
 .00072550,0.00011428,-0.00041436,-0.00072608,0.00011407,0.00041316,-0.
 00184484,-0.00277370,-0.00000454,-0.00008225,0.00016473,0.00023587,-0.
 00008239,0.00016380,-0.00023410,-0.00192028,0.00048363,0.00000157,0.26
 642021,-0.24613819,-0.00010017,-0.23188886,0.23622198,-0.00003386,0.00
 001554,-0.00161320,-0.00064633,0.00103353,0.00041638,0.00064770,-0.001
 03373,0.00041533,-0.00000099,-0.00000724,-0.00078860,-0.00012773,0.000
 27044,0.00010148,0.00012893,-0.00026881,0.00010099,-0.00000146,0.00000
 200,0.00073696,0.00010147,-0.00011504,-0.00108568,-0.00006774,0.000103
 30,0.00171633\\-0.00067621,0.00010568,0.00000830,0.00003337,0.00004468
 ,0.00001661,0.00003277,0.00004520,-0.00001627,0.00038912,-0.00039081,0
 .00001009,-0.00002624,0.00002171,-0.00000980,-0.00002654,0.00002177,0.
 00000947,-0.00002979,0.00001716,-0.00000964,0.00026620,0.00020720,-0.0
 0000747,0.00003734,-0.00007258,-0.00000129\\\@
 The archive entry for this job was punched.


    WHAT WE HAVE LEARNED
 IS LIKE A HANDFUL OF EARTH;
  WHAT WE HAVE YET TO LEARN
   IS LIKE THE WHOLE WORLD.

         -- AVVAYIAR
 Job cpu time:       0 days  0 hours  7 minutes 21.7 seconds.
 Elapsed time:       0 days  0 hours  0 minutes 56.8 seconds.
 File lengths (MBytes):  RWF=     21 Int=      0 D2E=      0 Chk=      2 Scr=      1
 Normal termination of Gaussian 16 at Thu Dec  5 18:22:52 2024.
