 Entering Gaussian System, Link 0=g16
 Input=rotation_std35.gjf
 Output=rotation_std35.log
 Initial command:
 /share/apps/gaussian/g16/l1.exe "/scratch/jingdan2/247464/Gau-340094.inp" -scrdir="/scratch/jingdan2/247464/"
 Entering Link 1 = /share/apps/gaussian/g16/l1.exe PID=    340097.
  
 Copyright (c) 1988-2019, Gaussian, Inc.  All Rights Reserved.
  
 This is part of the Gaussian(R) 16 program.  It is based on
 the Gaussian(R) 09 system (copyright 2009, Gaussian, Inc.),
 the Gaussian(R) 03 system (copyright 2003, Gaussian, Inc.),
 the Gaussian(R) 98 system (copyright 1998, Gaussian, Inc.),
 the Gaussian(R) 94 system (copyright 1995, Gaussian, Inc.),
 the Gaussian 92(TM) system (copyright 1992, Gaussian, Inc.),
 the Gaussian 90(TM) system (copyright 1990, Gaussian, Inc.),
 the Gaussian 88(TM) system (copyright 1988, Gaussian, Inc.),
 the Gaussian 86(TM) system (copyright 1986, Carnegie Mellon
 University), and the Gaussian 82(TM) system (copyright 1983,
 Carnegie Mellon University). Gaussian is a federally registered
 trademark of Gaussian, Inc.
  
 This software contains proprietary and confidential information,
 including trade secrets, belonging to Gaussian, Inc.
  
 This software is provided under written license and may be
 used, copied, transmitted, or stored only in accord with that
 written license.
  
 The following legend is applicable only to US Government
 contracts under FAR:
  
                    RESTRICTED RIGHTS LEGEND
  
 Use, reproduction and disclosure by the US Government is
 subject to restrictions as set forth in subparagraphs (a)
 and (c) of the Commercial Computer Software - Restricted
 Rights clause in FAR 52.227-19.
  
 Gaussian, Inc.
 340 Quinnipiac St., Bldg. 40, Wallingford CT 06492
  
  
 ---------------------------------------------------------------
 Warning -- This program may not be used in any manner that
 competes with the business of Gaussian, Inc. or will provide
 assistance to any competitor of Gaussian, Inc.  The licensee
 of this program is prohibited from giving any competitor of
 Gaussian, Inc. access to this program.  By using this program,
 the user acknowledges that Gaussian, Inc. is engaged in the
 business of creating and licensing software in the field of
 computational chemistry and represents and warrants to the
 licensee that it is not a competitor of Gaussian, Inc. and that
 it will not use this program in any manner prohibited above.
 ---------------------------------------------------------------
  

 Cite this work as:
 Gaussian 16, Revision C.01,
 M. J. Frisch, G. W. Trucks, H. B. Schlegel, G. E. Scuseria, 
 M. A. Robb, J. R. Cheeseman, G. Scalmani, V. Barone, 
 G. A. Petersson, H. Nakatsuji, X. Li, M. Caricato, A. V. Marenich, 
 J. Bloino, B. G. Janesko, R. Gomperts, B. Mennucci, H. P. Hratchian, 
 J. V. Ortiz, A. F. Izmaylov, J. L. Sonnenberg, D. Williams-Young, 
 F. Ding, F. Lipparini, F. Egidi, J. Goings, B. Peng, A. Petrone, 
 T. Henderson, D. Ranasinghe, V. G. Zakrzewski, J. Gao, N. Rega, 
 G. Zheng, W. Liang, M. Hada, M. Ehara, K. Toyota, R. Fukuda, 
 J. Hasegawa, M. Ishida, T. Nakajima, Y. Honda, O. Kitao, H. Nakai, 
 T. Vreven, K. Throssell, J. A. Montgomery, Jr., J. E. Peralta, 
 F. Ogliaro, M. J. Bearpark, J. J. Heyd, E. N. Brothers, K. N. Kudin, 
 V. N. Staroverov, T. A. Keith, R. Kobayashi, J. Normand, 
 K. Raghavachari, A. P. Rendell, J. C. Burant, S. S. Iyengar, 
 J. Tomasi, M. Cossi, J. M. Millam, M. Klene, C. Adamo, R. Cammi, 
 J. W. Ochterski, R. L. Martin, K. Morokuma, O. Farkas, 
 J. B. Foresman, and D. J. Fox, Gaussian, Inc., Wallingford CT, 2019.
 
 ******************************************
 Gaussian 16:  ES64L-G16RevC.01  3-Jul-2019
                 5-Dec-2024 
 ******************************************
 %nprocshared=8
 Will use up to    8 processors via shared memory.
 %mem=8GB
 -------------------------
 # freq b3lyp/6-31g(2df,p)
 -------------------------
 1/10=4,30=1,38=1/1,3;
 2/12=2,17=6,18=5,40=1/2;
 3/5=1,6=6,7=104,11=2,25=1,30=1,71=2,74=-5,140=1/1,2,3;
 4//1;
 5/5=2,38=5,98=1/2;
 8/6=4,10=90,11=11/1;
 11/6=1,8=1,9=11,15=111,16=1/1,2,10;
 10/6=1/2;
 6/7=2,8=2,9=2,10=2,28=1/1;
 7/8=1,10=1,25=1/1,2,3,16;
 1/10=4,30=1/3;
 99//99;
 -------------------------------------------------------------------
 energy: -15.614184499692 gnorm: 0.000439253721 xtb: 6.6.1 (8d0f1dd)
 -------------------------------------------------------------------
 Symbolic Z-matrix:
 Charge =  0 Multiplicity = 1
 C                    -0.56034   0.497     0.10282 
 H                    -0.60241   1.05841   1.04744 
 H                    -0.37228   1.21742  -0.70828 
 C                     0.60064  -0.49006   0.1179 
 H                     0.44458  -1.22728  -0.67886 
 H                     0.67668  -1.01756   1.07535 
 F                     1.77897   0.18576  -0.11774 
 O                    -1.73793  -0.25831  -0.12358 
 H                    -2.49571   0.32199  -0.01167 
 

 GradGradGradGradGradGradGradGradGradGradGradGradGradGradGradGradGradGrad
 Berny optimization.
 Initialization pass.
 Trust Radius=3.00D-01 FncErr=1.00D-07 GrdErr=1.00D-07 EigMax=2.50D+02 EigMin=1.00D-04
 Number of steps in this run=      2 maximum allowed number of steps=      2.
 GradGradGradGradGradGradGradGradGradGradGradGradGradGradGradGradGradGrad

                          Input orientation:                          
 ---------------------------------------------------------------------
 Center     Atomic      Atomic             Coordinates (Angstroms)
 Number     Number       Type             X           Y           Z
 ---------------------------------------------------------------------
      1          6           0       -0.560342    0.496998    0.102818
      2          1           0       -0.602412    1.058414    1.047444
      3          1           0       -0.372279    1.217417   -0.708275
      4          6           0        0.600643   -0.490059    0.117895
      5          1           0        0.444580   -1.227281   -0.678856
      6          1           0        0.676676   -1.017563    1.075349
      7          9           0        1.778973    0.185764   -0.117736
      8          8           0       -1.737926   -0.258312   -0.123580
      9          1           0       -2.495713    0.321990   -0.011672
 ---------------------------------------------------------------------
                    Distance matrix (angstroms):
                    1          2          3          4          5
     1  C    0.000000
     2  H    1.099671   0.000000
     3  H    1.101019   1.777862   0.000000
     4  C    1.523941   2.170063   2.131809   0.000000
     5  H    2.143367   3.049706   2.577726   1.096660   0.000000
     6  H    2.184016   2.438550   3.045777   1.095792   1.781877
     7  F    2.370212   2.791085   2.457830   1.378666   2.022908
     8  O    1.417199   2.096296   2.093952   2.362397   2.451645
     9  H    1.946637   2.290990   2.407492   3.203690   3.389793
                    6          7          8          9
     6  H    0.000000
     7  F    2.021511   0.000000
     8  O    2.800749   3.544830   0.000000
     9  H    3.611104   4.278171   0.960997   0.000000
 Stoichiometry    C2H5FO
 Framework group  C1[X(C2H5FO)]
 Deg. of freedom    21
 Full point group                 C1      NOp   1
 Largest Abelian subgroup         C1      NOp   1
 Largest concise Abelian subgroup C1      NOp   1
                         Standard orientation:                         
 ---------------------------------------------------------------------
 Center     Atomic      Atomic             Coordinates (Angstroms)
 Number     Number       Type             X           Y           Z
 ---------------------------------------------------------------------
      1          6           0       -0.560342    0.496998    0.102818
      2          1           0       -0.602412    1.058414    1.047444
      3          1           0       -0.372279    1.217417   -0.708275
      4          6           0        0.600643   -0.490059    0.117895
      5          1           0        0.444580   -1.227281   -0.678856
      6          1           0        0.676676   -1.017563    1.075349
      7          9           0        1.778973    0.185764   -0.117736
      8          8           0       -1.737926   -0.258312   -0.123580
      9          1           0       -2.495713    0.321990   -0.011672
 ---------------------------------------------------------------------
 Rotational constants (GHZ):          30.1151094           3.9528953           3.7005258
 Standard basis: 6-31G(2df,p) (6D, 7F)
 There are   149 symmetry adapted cartesian basis functions of A   symmetry.
 There are   137 symmetry adapted basis functions of A   symmetry.
   137 basis functions,   211 primitive gaussians,   149 cartesian basis functions
    17 alpha electrons       17 beta electrons
       nuclear repulsion energy       128.0505670348 Hartrees.
 NAtoms=    9 NActive=    9 NUniq=    9 SFac= 1.00D+00 NAtFMM=   60 NAOKFM=F Big=F
 Integral buffers will be    131072 words long.
 Raffenetti 2 integral format.
 Two-electron integral symmetry is turned on.
 One-electron integrals computed using PRISM.
 NBasis=   137 RedAO= T EigKep=  1.24D-03  NBF=   137
 NBsUse=   137 1.00D-06 EigRej= -1.00D+00 NBFU=   137
 ExpMin= 1.61D-01 ExpMax= 7.00D+03 ExpMxC= 1.05D+03 IAcc=3 IRadAn=         5 AccDes= 0.00D+00
 Harris functional with IExCor=  402 and IRadAn=       5 diagonalized for initial guess.
 HarFok:  IExCor=  402 AccDes= 0.00D+00 IRadAn=         5 IDoV= 1 UseB2=F ITyADJ=14
 ICtDFT=  3500011 ScaDFX=  1.000000  1.000000  1.000000  1.000000
 FoFCou: FMM=F IPFlag=           0 FMFlag=      100000 FMFlg1=           0
         NFxFlg=           0 DoJE=T BraDBF=F KetDBF=T FulRan=T
         wScrn=  0.000000 ICntrl=       500 IOpCl=  0 I1Cent=   200000004 NGrid=           0
         NMat0=    1 NMatS0=      1 NMatT0=    0 NMatD0=    1 NMtDS0=    0 NMtDT0=    0
 Petite list used in FoFCou.
 Keep R1 ints in memory in canonical form, NReq=52495207.
 Requested convergence on RMS density matrix=1.00D-08 within 128 cycles.
 Requested convergence on MAX density matrix=1.00D-06.
 Requested convergence on             energy=1.00D-06.
 No special actions if energy rises.
 Integral accuracy reduced to 1.0D-05 until final iterations.
 Initial convergence to 1.0D-05 achieved.  Increase integral accuracy.
 SCF Done:  E(RB3LYP) =  -254.279919063     A.U. after   11 cycles
            NFock= 11  Conv=0.92D-08     -V/T= 2.0064
 DoSCS=F DFT=T ScalE2(SS,OS)=  1.000000  1.000000
 Range of M.O.s used for correlation:     1   137
 NBasis=   137 NAE=    17 NBE=    17 NFC=     0 NFV=     0
 NROrb=    137 NOA=    17 NOB=    17 NVA=   120 NVB=   120

 **** Warning!!: The largest alpha MO coefficient is  0.18607389D+02

 Symmetrizing basis deriv contribution to polar:
 IMax=3 JMax=2 DiffMx= 0.00D+00
 G2DrvN: will do    10 centers at a time, making    1 passes.
 Calling FoFCou, ICntrl=  3107 FMM=F I1Cent=   0 AccDes= 0.00D+00.
 End of G2Drv F.D. properties file   721 does not exist.
 End of G2Drv F.D. properties file   722 does not exist.
 End of G2Drv F.D. properties file   788 does not exist.
          IDoAtm=111111111
          Differentiating once with respect to electric field.
                with respect to dipole field.
          Differentiating once with respect to nuclear coordinates.
 Keep R1 ints in memory in canonical form, NReq=52475930.
          There are    30 degrees of freedom in the 1st order CPHF.  IDoFFX=6 NUNeed=     3.
     27 vectors produced by pass  0 Test12= 6.80D-15 3.33D-09 XBig12= 1.52D+01 1.51D+00.
 AX will form    27 AO Fock derivatives at one time.
     27 vectors produced by pass  1 Test12= 6.80D-15 3.33D-09 XBig12= 1.19D+00 2.06D-01.
     27 vectors produced by pass  2 Test12= 6.80D-15 3.33D-09 XBig12= 1.93D-02 2.83D-02.
     27 vectors produced by pass  3 Test12= 6.80D-15 3.33D-09 XBig12= 6.69D-05 1.28D-03.
     27 vectors produced by pass  4 Test12= 6.80D-15 3.33D-09 XBig12= 1.02D-07 4.89D-05.
     15 vectors produced by pass  5 Test12= 6.80D-15 3.33D-09 XBig12= 7.50D-11 1.36D-06.
      3 vectors produced by pass  6 Test12= 6.80D-15 3.33D-09 XBig12= 7.02D-14 3.88D-08.
 InvSVY:  IOpt=1 It=  1 EMax= 2.66D-15
 Solved reduced A of dimension   153 with    30 vectors.
 Isotropic polarizability for W=    0.000000       28.31 Bohr**3.
 End of Minotr F.D. properties file   721 does not exist.
 End of Minotr F.D. properties file   722 does not exist.
 End of Minotr F.D. properties file   788 does not exist.

 **********************************************************************

            Population analysis using the SCF Density.

 **********************************************************************

 Orbital symmetries:
       Occupied  (A) (A) (A) (A) (A) (A) (A) (A) (A) (A) (A) (A)
                 (A) (A) (A) (A) (A)
       Virtual   (A) (A) (A) (A) (A) (A) (A) (A) (A) (A) (A) (A)
                 (A) (A) (A) (A) (A) (A) (A) (A) (A) (A) (A) (A)
                 (A) (A) (A) (A) (A) (A) (A) (A) (A) (A) (A) (A)
                 (A) (A) (A) (A) (A) (A) (A) (A) (A) (A) (A) (A)
                 (A) (A) (A) (A) (A) (A) (A) (A) (A) (A) (A) (A)
                 (A) (A) (A) (A) (A) (A) (A) (A) (A) (A) (A) (A)
                 (A) (A) (A) (A) (A) (A) (A) (A) (A) (A) (A) (A)
                 (A) (A) (A) (A) (A) (A) (A) (A) (A) (A) (A) (A)
                 (A) (A) (A) (A) (A) (A) (A) (A) (A) (A) (A) (A)
                 (A) (A) (A) (A) (A) (A) (A) (A) (A) (A) (A) (A)
 The electronic state is 1-A.
 Alpha  occ. eigenvalues --  -24.66710 -19.14464 -10.25122 -10.23457  -1.18187
 Alpha  occ. eigenvalues --   -1.02589  -0.74641  -0.62111  -0.52961  -0.49977
 Alpha  occ. eigenvalues --   -0.46252  -0.45420  -0.42282  -0.36509  -0.32996
 Alpha  occ. eigenvalues --   -0.32188  -0.27702
 Alpha virt. eigenvalues --    0.06244   0.10659   0.14471   0.14768   0.15693
 Alpha virt. eigenvalues --    0.19983   0.21827   0.25051   0.42838   0.46894
 Alpha virt. eigenvalues --    0.49215   0.51583   0.53670   0.63229   0.65695
 Alpha virt. eigenvalues --    0.67202   0.69598   0.71770   0.77288   0.79077
 Alpha virt. eigenvalues --    0.79424   0.84838   0.87724   0.89078   0.91292
 Alpha virt. eigenvalues --    0.93338   0.96859   0.99366   1.04506   1.06918
 Alpha virt. eigenvalues --    1.08840   1.11133   1.24807   1.26988   1.29140
 Alpha virt. eigenvalues --    1.38129   1.40741   1.42701   1.50465   1.54147
 Alpha virt. eigenvalues --    1.59485   1.63353   1.65362   1.70742   1.75676
 Alpha virt. eigenvalues --    1.91923   1.95269   2.04270   2.13459   2.19796
 Alpha virt. eigenvalues --    2.25496   2.40051   2.45842   2.49960   2.53673
 Alpha virt. eigenvalues --    2.59547   2.69877   2.70419   2.80933   2.83541
 Alpha virt. eigenvalues --    2.87515   2.90627   2.92533   2.95861   3.05817
 Alpha virt. eigenvalues --    3.15964   3.27507   3.32198   3.36665   3.39109
 Alpha virt. eigenvalues --    3.39889   3.49112   3.55698   3.59736   3.76098
 Alpha virt. eigenvalues --    3.83296   3.86609   3.92999   4.12723   4.17662
 Alpha virt. eigenvalues --    4.20308   4.29020   4.36499   4.40917   4.41356
 Alpha virt. eigenvalues --    4.42044   4.49690   4.52751   4.53672   4.56550
 Alpha virt. eigenvalues --    4.60375   4.65746   4.68372   4.71443   4.73433
 Alpha virt. eigenvalues --    4.74682   4.80840   4.85424   4.96807   5.22702
 Alpha virt. eigenvalues --    5.30904   5.39825   5.46166   5.50607   5.80612
 Alpha virt. eigenvalues --    5.91965   5.97005   6.06841   6.66804   6.67751
 Alpha virt. eigenvalues --    6.79245   6.80080   7.03070   7.24869   7.30818
 Alpha virt. eigenvalues --    7.34658   9.54583  11.03067  11.85001  13.14605
          Condensed to atoms (all electrons):
               1          2          3          4          5          6
     1  C    4.892902   0.358817   0.357003   0.352961  -0.046446  -0.038687
     2  H    0.358817   0.661976  -0.057714  -0.026390   0.006992  -0.009715
     3  H    0.357003  -0.057714   0.660887  -0.040075  -0.005740   0.007009
     4  C    0.352961  -0.026390  -0.040075   4.692320   0.354642   0.354553
     5  H   -0.046446   0.006992  -0.005740   0.354642   0.640768  -0.052361
     6  H   -0.038687  -0.009715   0.007009   0.354553  -0.052361   0.649432
     7  F   -0.035252   0.001815   0.006131   0.376305  -0.021189  -0.021347
     8  O    0.301832  -0.027994  -0.026991  -0.026140   0.008383   0.003981
     9  H   -0.044713  -0.005001  -0.002232   0.005540  -0.000142  -0.000313
               7          8          9
     1  C   -0.035252   0.301832  -0.044713
     2  H    0.001815  -0.027994  -0.005001
     3  H    0.006131  -0.026991  -0.002232
     4  C    0.376305  -0.026140   0.005540
     5  H   -0.021189   0.008383  -0.000142
     6  H   -0.021347   0.003981  -0.000313
     7  F    8.849042   0.000587  -0.000044
     8  O    0.000587   7.878923   0.304484
     9  H   -0.000044   0.304484   0.448654
 Mulliken charges:
               1
     1  C   -0.098417
     2  H    0.097213
     3  H    0.101722
     4  C   -0.043715
     5  H    0.115093
     6  H    0.107448
     7  F   -0.156047
     8  O   -0.417065
     9  H    0.293767
 Sum of Mulliken charges =  -0.00000
 Mulliken charges with hydrogens summed into heavy atoms:
               1
     1  C    0.100518
     4  C    0.178826
     7  F   -0.156047
     8  O   -0.123297
 APT charges:
               1
     1  C    0.458424
     2  H   -0.078997
     3  H   -0.075641
     4  C    0.565219
     5  H   -0.042447
     6  H   -0.052860
     7  F   -0.458567
     8  O   -0.558583
     9  H    0.243452
 Sum of APT charges =   0.00000
 APT charges with hydrogens summed into heavy atoms:
               1
     1  C    0.303786
     4  C    0.469911
     7  F   -0.458567
     8  O   -0.315131
 Electronic spatial extent (au):  <R**2>=            325.9276
 Charge=             -0.0000 electrons
 Dipole moment (field-independent basis, Debye):
    X=             -1.5846    Y=              0.7462    Z=              0.6042  Tot=              1.8528
 Quadrupole moment (field-independent basis, Debye-Ang):
   XX=            -23.8311   YY=            -22.9762   ZZ=            -23.1472
   XY=             -3.8794   XZ=             -0.2490   YZ=             -0.0438
 Traceless Quadrupole moment (field-independent basis, Debye-Ang):
   XX=             -0.5129   YY=              0.3420   ZZ=              0.1709
   XY=             -3.8794   XZ=             -0.2490   YZ=             -0.0438
 Octapole moment (field-independent basis, Debye-Ang**2):
  XXX=            -13.7683  YYY=              0.4795  ZZZ=             -0.7385  XYY=              2.2114
  XXY=              5.6982  XXZ=              1.1113  XZZ=              2.7687  YZZ=              0.1588
  YYZ=             -0.5844  XYZ=             -0.0462
 Hexadecapole moment (field-independent basis, Debye-Ang**3):
 XXXX=           -214.9151 YYYY=            -61.7088 ZZZZ=            -34.8538 XXXY=            -11.5970
 XXXZ=             -1.7441 YYYX=              2.6758 YYYZ=              0.0141 ZZZX=             -1.0363
 ZZZY=             -0.2230 XXYY=            -51.4657 XXZZ=            -48.7694 YYZZ=            -14.8490
 XXYZ=             -0.1770 YYXZ=             -0.2929 ZZXY=              0.2388
 N-N= 1.280505670348D+02 E-N=-8.557848649773D+02  KE= 2.526718212331D+02
  Exact polarizability:      31.348      -0.665      27.762       0.051       0.170      25.810
 Approx polarizability:      39.753       1.285      37.728      -0.243       0.415      35.112
 Calling FoFJK, ICntrl=    100127 FMM=F ISym2X=0 I1Cent= 0 IOpClX= 0 NMat=1 NMatS=1 NMatT=0.
 Full mass-weighted force constant matrix:
 Low frequencies ---  -10.6230   -5.1564   -0.0019   -0.0014   -0.0005   14.7465
 Low frequencies ---   98.6274  225.9060  302.3799
 Diagonal vibrational polarizability:
        7.4747238       4.7602176      79.8638682
 Harmonic frequencies (cm**-1), IR intensities (KM/Mole), Raman scattering
 activities (A**4/AMU), depolarization ratios for plane and unpolarized
 incident light, reduced masses (AMU), force constants (mDyne/A),
 and normal coordinates:
                      1                      2                      3
                      A                      A                      A
 Frequencies --     98.6254               225.8873               302.2269
 Red. masses --      3.2457                 1.1043                 3.4266
 Frc consts  --      0.0186                 0.0332                 0.1844
 IR Inten    --      8.6496               107.1975                17.4959
  Atom  AN      X      Y      Z        X      Y      Z        X      Y      Z
     1   6     0.02   0.01  -0.21    -0.01   0.03  -0.03    -0.10   0.21   0.05
     2   1     0.25   0.19  -0.31    -0.04   0.02  -0.03    -0.23   0.11   0.10
     3   1    -0.14  -0.15  -0.39    -0.02   0.04  -0.02    -0.30   0.31   0.09
     4   6    -0.02  -0.02  -0.22    -0.01   0.03   0.01    -0.11   0.20  -0.06
     5   1     0.15   0.14  -0.41    -0.02  -0.00   0.04    -0.30   0.31  -0.13
     6   1    -0.25  -0.23  -0.31    -0.05   0.06   0.03    -0.26   0.07  -0.12
     7   9     0.03   0.02   0.18     0.01  -0.02   0.01     0.09  -0.16   0.00
     8   8    -0.04  -0.01   0.19     0.01  -0.00  -0.06     0.12  -0.15   0.03
     9   1    -0.00   0.05   0.15    -0.05  -0.28   0.95    -0.07  -0.32  -0.38
                      4                      5                      6
                      A                      A                      A
 Frequencies --    467.9864               821.6651              1016.6586
 Red. masses --      7.3211                 1.1278                 2.6380
 Frc consts  --      0.9447                 0.4486                 1.6065
 IR Inten    --      1.3346                 1.3034                37.8116
  Atom  AN      X      Y      Z        X      Y      Z        X      Y      Z
     1   6    -0.22  -0.10   0.01     0.00  -0.00  -0.06     0.14  -0.21  -0.00
     2   1    -0.29  -0.20   0.07     0.19  -0.42   0.20     0.05  -0.22  -0.01
     3   1    -0.35   0.02   0.10    -0.22   0.37   0.23     0.11  -0.18   0.02
     4   6     0.19   0.12   0.00    -0.01   0.00  -0.07    -0.08   0.27   0.00
     5   1     0.29   0.01   0.09     0.22  -0.37   0.23    -0.24   0.33  -0.02
     6   1     0.23   0.22   0.05    -0.20   0.43   0.19    -0.20   0.19  -0.04
     7   9     0.38  -0.04  -0.01    -0.02  -0.01   0.02    -0.03  -0.04   0.00
     8   8    -0.41   0.02  -0.02     0.02   0.01   0.02    -0.02  -0.04  -0.01
     9   1    -0.23   0.26  -0.02     0.03   0.02  -0.02     0.44   0.54   0.15
                      7                      8                      9
                      A                      A                      A
 Frequencies --   1088.8110              1098.8191              1165.3112
 Red. masses --      7.6236                 4.4965                 1.5651
 Frc consts  --      5.3249                 3.1988                 1.2522
 IR Inten    --    125.8348                39.6069                 0.5371
  Atom  AN      X      Y      Z        X      Y      Z        X      Y      Z
     1   6     0.42   0.33   0.03    -0.14  -0.04  -0.03    -0.00  -0.03   0.16
     2   1     0.45   0.11   0.14    -0.36   0.05  -0.08     0.42   0.41  -0.09
     3   1     0.17   0.40   0.09    -0.34   0.05  -0.03    -0.14  -0.42  -0.22
     4   6     0.21   0.03  -0.00     0.37   0.16  -0.03    -0.01   0.04  -0.14
     5   1     0.01   0.08  -0.02     0.41   0.18  -0.09    -0.04  -0.27   0.16
     6   1     0.10  -0.01  -0.00     0.49  -0.07  -0.14     0.15   0.42   0.06
     7   9    -0.14  -0.05   0.02    -0.22  -0.15   0.04    -0.01  -0.01   0.03
     8   8    -0.33  -0.24  -0.06     0.07   0.08   0.02    -0.00   0.01  -0.05
     9   1    -0.16   0.02  -0.02     0.07   0.06   0.02    -0.14  -0.17  -0.05
                     10                     11                     12
                      A                      A                      A
 Frequencies --   1237.3035              1253.7374              1295.2135
 Red. masses --      1.1562                 1.1637                 1.0935
 Frc consts  --      1.0429                 1.0777                 1.0808
 IR Inten    --      2.8835                35.9977                 4.8269
  Atom  AN      X      Y      Z        X      Y      Z        X      Y      Z
     1   6    -0.01  -0.02   0.03    -0.00  -0.05  -0.04     0.00   0.02   0.06
     2   1     0.49   0.04   0.03     0.23  -0.20   0.05    -0.45   0.18  -0.06
     3   1    -0.42  -0.06  -0.09     0.58  -0.04   0.10     0.41  -0.11   0.03
     4   6     0.01   0.02   0.09    -0.01   0.08   0.01     0.00  -0.00  -0.05
     5   1     0.44   0.20  -0.15     0.11   0.12  -0.05     0.55  -0.11  -0.04
     6   1    -0.49  -0.23   0.01     0.04   0.02  -0.03    -0.47   0.12   0.06
     7   9    -0.00  -0.00  -0.04    -0.01  -0.02  -0.00    -0.01  -0.01  -0.02
     8   8     0.00   0.01  -0.03    -0.01   0.04   0.03    -0.01  -0.02   0.01
     9   1    -0.06  -0.07  -0.03    -0.46  -0.53  -0.14     0.07   0.09   0.03
                     13                     14                     15
                      A                      A                      A
 Frequencies --   1397.7569              1473.8773              1516.2519
 Red. masses --      1.2765                 1.5156                 1.0819
 Frc consts  --      1.4694                 1.9397                 1.4654
 IR Inten    --      8.0365                 4.1652                 0.1535
  Atom  AN      X      Y      Z        X      Y      Z        X      Y      Z
     1   6    -0.06   0.06  -0.01     0.16  -0.06   0.00     0.02   0.03   0.00
     2   1     0.29  -0.01   0.05    -0.50   0.10  -0.13    -0.13  -0.28   0.16
     3   1     0.20   0.01   0.01    -0.49   0.13   0.03    -0.10  -0.23  -0.24
     4   6    -0.11   0.03   0.02    -0.11   0.03   0.00    -0.02  -0.07   0.01
     5   1     0.57  -0.08  -0.01     0.35  -0.11   0.05     0.11   0.42  -0.44
     6   1     0.60  -0.12  -0.12     0.32  -0.11  -0.11     0.18   0.50   0.28
     7   9     0.00  -0.02   0.00     0.01  -0.01   0.00    -0.00  -0.01   0.00
     8   8     0.01  -0.04  -0.01    -0.01   0.04   0.01     0.00   0.01   0.00
     9   1     0.24   0.26   0.08    -0.27  -0.29  -0.09    -0.01  -0.02  -0.00
                     16                     17                     18
                      A                      A                      A
 Frequencies --   1531.5918              2982.2241              3017.2601
 Red. masses --      1.0865                 1.0557                 1.1053
 Frc consts  --      1.5017                 5.5317                 5.9288
 IR Inten    --      4.2663                47.4344                36.9778
  Atom  AN      X      Y      Z        X      Y      Z        X      Y      Z
     1   6    -0.01  -0.07  -0.01     0.00   0.07  -0.01     0.01  -0.00  -0.09
     2   1     0.15   0.50  -0.31     0.03  -0.28  -0.52    -0.04   0.40   0.68
     3   1     0.04   0.45   0.43    -0.13  -0.51   0.61    -0.08  -0.38   0.41
     4   6    -0.01  -0.04   0.01     0.00  -0.00  -0.00     0.00  -0.00   0.02
     5   1     0.01   0.25  -0.25     0.01   0.02   0.03    -0.01  -0.06  -0.06
     6   1     0.07   0.28   0.17    -0.00   0.02  -0.03    -0.01   0.09  -0.17
     7   9     0.00  -0.00  -0.00    -0.00  -0.00   0.00    -0.00  -0.00   0.00
     8   8    -0.00  -0.01  -0.00     0.00   0.00   0.00    -0.00   0.00   0.00
     9   1     0.02   0.02   0.00     0.00   0.00   0.00     0.00  -0.00   0.00
                     19                     20                     21
                      A                      A                      A
 Frequencies --   3033.4937              3085.5061              3841.0923
 Red. masses --      1.0557                 1.1103                 1.0666
 Frc consts  --      5.7239                 6.2278                 9.2715
 IR Inten    --     38.3220                54.1093                27.7848
  Atom  AN      X      Y      Z        X      Y      Z        X      Y      Z
     1   6     0.00   0.00  -0.01     0.00  -0.00  -0.02     0.00   0.00   0.00
     2   1    -0.00   0.01   0.02    -0.01   0.08   0.14     0.00  -0.00  -0.00
     3   1    -0.01  -0.05   0.06    -0.01  -0.08   0.09     0.00   0.00   0.00
     4   6     0.00   0.07  -0.00    -0.01  -0.01  -0.09     0.00  -0.00   0.00
     5   1    -0.10  -0.49  -0.56     0.08   0.44   0.47     0.00  -0.00  -0.00
     6   1     0.05  -0.29   0.58     0.06  -0.35   0.64     0.00   0.00  -0.00
     7   9     0.00   0.00  -0.00     0.00   0.00   0.00     0.00   0.00  -0.00
     8   8    -0.00  -0.00  -0.00    -0.00   0.00   0.00    -0.05   0.04   0.01
     9   1    -0.00  -0.00  -0.00     0.00  -0.00   0.00     0.79  -0.59  -0.11

 -------------------
 - Thermochemistry -
 -------------------
 Temperature   298.150 Kelvin.  Pressure   1.00000 Atm.
 Atom     1 has atomic number  6 and mass  12.00000
 Atom     2 has atomic number  1 and mass   1.00783
 Atom     3 has atomic number  1 and mass   1.00783
 Atom     4 has atomic number  6 and mass  12.00000
 Atom     5 has atomic number  1 and mass   1.00783
 Atom     6 has atomic number  1 and mass   1.00783
 Atom     7 has atomic number  9 and mass  18.99840
 Atom     8 has atomic number  8 and mass  15.99491
 Atom     9 has atomic number  1 and mass   1.00783
 Molecular mass:    64.03244 amu.
 Principal axes and moments of inertia in atomic units:
                           1         2         3
     Eigenvalues --    59.92810 456.56186 487.69859
           X            0.99952  -0.03101   0.00204
           Y            0.03101   0.99952  -0.00014
           Z           -0.00203   0.00020   1.00000
 This molecule is an asymmetric top.
 Rotational symmetry number  1.
 Rotational temperatures (Kelvin)      1.44530     0.18971     0.17760
 Rotational constants (GHZ):          30.11511     3.95290     3.70053
 Zero-point vibrational energy     191111.2 (Joules/Mol)
                                   45.67668 (Kcal/Mol)
 Warning -- explicit consideration of   4 degrees of freedom as
           vibrations may cause significant error
 Vibrational temperatures:    141.90   325.00   434.84   673.33  1182.19
          (Kelvin)           1462.74  1566.56  1580.96  1676.62  1780.20
                             1803.85  1863.52  2011.06  2120.58  2181.55
                             2203.62  4290.76  4341.16  4364.52  4439.36
                             5526.48
 
 Zero-point correction=                           0.072790 (Hartree/Particle)
 Thermal correction to Energy=                    0.077786
 Thermal correction to Enthalpy=                  0.078730
 Thermal correction to Gibbs Free Energy=         0.045169
 Sum of electronic and zero-point Energies=           -254.207129
 Sum of electronic and thermal Energies=              -254.202133
 Sum of electronic and thermal Enthalpies=            -254.201189
 Sum of electronic and thermal Free Energies=         -254.234750
 
                     E (Thermal)             CV                S
                      KCal/Mol        Cal/Mol-Kelvin    Cal/Mol-Kelvin
 Total                   48.812             15.310             70.637
 Electronic               0.000              0.000              0.000
 Translational            0.889              2.981             38.389
 Rotational               0.889              2.981             24.104
 Vibrational             47.034              9.348              8.143
 Vibration     1          0.604              1.950              3.481
 Vibration     2          0.650              1.802              1.911
 Vibration     3          0.694              1.669              1.405
 Vibration     4          0.825              1.321              0.743
                       Q            Log10(Q)             Ln(Q)
 Total Bot       0.167435D-20        -20.776153        -47.838860
 Total V=0       0.507090D+13         12.705085         29.254539
 Vib (Bot)       0.201051D-32        -32.696693        -75.286918
 Vib (Bot)    1  0.208143D+01          0.318361          0.733054
 Vib (Bot)    2  0.873487D+00         -0.058743         -0.135262
 Vib (Bot)    3  0.628460D+00         -0.201722         -0.464483
 Vib (Bot)    4  0.361036D+00         -0.442450         -1.018778
 Vib (V=0)       0.608898D+01          0.784544          1.806480
 Vib (V=0)    1  0.264064D+01          0.421709          0.971022
 Vib (V=0)    2  0.150647D+01          0.177960          0.409769
 Vib (V=0)    3  0.130310D+01          0.114976          0.264742
 Vib (V=0)    4  0.111672D+01          0.047945          0.110398
 Electronic      0.100000D+01          0.000000          0.000000
 Translational   0.201397D+08          7.304054         16.818206
 Rotational      0.413510D+05          4.616486         10.629853
 ***** Axes restored to original set *****
 -------------------------------------------------------------------
 Center     Atomic                   Forces (Hartrees/Bohr)
 Number     Number              X              Y              Z
 -------------------------------------------------------------------
      1        6           0.000368868    0.000402681   -0.001927687
      2        1          -0.000003081    0.000003578    0.000005267
      3        1           0.000011307   -0.000001031   -0.000000151
      4        6          -0.000370696   -0.000461049   -0.002207955
      5        1          -0.000005802   -0.000002520    0.000004522
      6        1          -0.000004670    0.000000569    0.000002510
      7        9           0.000250981    0.000315568    0.002103136
      8        8          -0.000244132   -0.000266879    0.002022770
      9        1          -0.000002774    0.000009084   -0.000002412
 -------------------------------------------------------------------
 Cartesian Forces:  Max     0.002207955 RMS     0.000817580

 GradGradGradGradGradGradGradGradGradGradGradGradGradGradGradGradGradGrad
 Berny optimization.
 Search for a local minimum.
 Step number   1 out of a maximum of    2
 All quantities printed in internal units (Hartrees-Bohrs-Radians)
 Second derivative matrix not updated -- analytic derivatives used.
 ITU=  0
     Eigenvalues ---    0.00139   0.00306   0.01571   0.03091   0.05111
     Eigenvalues ---    0.06706   0.07662   0.08255   0.11830   0.11981
     Eigenvalues ---    0.15310   0.16931   0.21394   0.30910   0.47189
     Eigenvalues ---    0.66198   0.73164   0.75737   0.83154   0.83724
     Eigenvalues ---    1.04578
 Quadratic step=1.282D+00 exceeds max=3.000D-01 adjusted using Lamda=-4.810D-03.
 Angle between NR and scaled steps=   8.80 degrees.
 Angle between quadratic step and forces=  59.87 degrees.
 Linear search not attempted -- first point.
 B after Tr=     0.000494    0.000880    0.028418
         Rot=    0.999998   -0.000061    0.001602   -0.001085 Ang=  -0.22 deg.
 Variable       Old X    -DE/DX   Delta X   Delta X   Delta X     New X
                                 (Linear)    (Quad)   (Total)
    X1       -1.05889   0.00037   0.00000   0.00433   0.00233  -1.05656
    Y1        0.93919   0.00040   0.00000   0.00031  -0.00112   0.93807
    Z1        0.19430  -0.00193   0.00000  -0.04933  -0.02418   0.17012
    X2       -1.13839  -0.00000   0.00000   0.07932   0.06926  -1.06913
    Y2        2.00011   0.00000   0.00000   0.05442   0.05276   2.05287
    Z2        1.97938   0.00001   0.00000  -0.07654  -0.05128   1.92810
    X3       -0.70351   0.00001   0.00000  -0.05197  -0.05175  -0.75525
    Y3        2.30058  -0.00000   0.00000  -0.04584  -0.04643   2.25416
    Z3       -1.33845  -0.00000   0.00000  -0.10266  -0.07638  -1.41483
    X4        1.13505  -0.00037   0.00000  -0.00473  -0.00278   1.13227
    Y4       -0.92608  -0.00046   0.00000  -0.00543  -0.00212  -0.92820
    Z4        0.22279  -0.00221   0.00000  -0.04967  -0.01774   0.20505
    X5        0.84013  -0.00001   0.00000   0.05729   0.06716   0.90729
    Y5       -2.31922  -0.00000   0.00000   0.04293   0.04594  -2.27329
    Z5       -1.28285   0.00000   0.00000  -0.10575  -0.07472  -1.35757
    X6        1.27873  -0.00000   0.00000  -0.08255  -0.08402   1.19471
    Y6       -1.92292   0.00000   0.00000  -0.06470  -0.06146  -1.98438
    Z6        2.03212   0.00000   0.00000  -0.07516  -0.04315   1.98896
    X7        3.36177   0.00025   0.00000   0.01225   0.01231   3.37408
    Y7        0.35104   0.00032   0.00000   0.01600   0.02422   0.37526
    Z7       -0.22249   0.00210   0.00000   0.10144   0.14071  -0.08178
    X8       -3.28420  -0.00024   0.00000  -0.01319  -0.01115  -3.29535
    Y8       -0.48814  -0.00027   0.00000  -0.01428  -0.02053  -0.50867
    Z8       -0.23353   0.00202   0.00000   0.09993   0.11772  -0.11581
    X9       -4.71621  -0.00000   0.00000  -0.00056  -0.00137  -4.71759
    Y9        0.60847   0.00001   0.00000   0.01810   0.00874   0.61722
    Z9       -0.02206  -0.00000   0.00000   0.01563   0.02902   0.00696
         Item               Value     Threshold  Converged?
 Maximum Force            0.002208     0.000450     NO 
 RMS     Force            0.000818     0.000300     NO 
 Maximum Displacement     0.140709     0.001800     NO 
 RMS     Displacement     0.055297     0.001200     NO 
 Predicted change in Energy=-5.363055D-04
 GradGradGradGradGradGradGradGradGradGradGradGradGradGradGradGradGradGrad


 ----------------------------------------------------------------------

 Electric dipole moment (input orientation):
 (Debye = 10**-18 statcoulomb cm , SI units = C m)
                  (au)            (Debye)         (10**-30 SI)
   Tot        0.728949D+00      0.185280D+01      0.618029D+01
   x         -0.623439D+00     -0.158462D+01     -0.528574D+01
   y          0.293558D+00      0.746151D+00      0.248889D+01
   z          0.237725D+00      0.604237D+00      0.201552D+01

 Dipole polarizability, Alpha (input orientation).
 (esu units = cm**3 , SI units = C**2 m**2 J**-1)
 Alpha(0;0):
               (au)            (10**-24 esu)      (10**-40 SI)
   iso        0.283068D+02      0.419463D+01      0.466716D+01
   aniso      0.500965D+01      0.742353D+00      0.825979D+00
   xx         0.313485D+02      0.464536D+01      0.516866D+01
   yx        -0.665180D+00     -0.985695D-01     -0.109673D+00
   yy         0.277619D+02      0.411389D+01      0.457733D+01
   zx         0.511852D-01      0.758487D-02      0.843930D-02
   zy         0.170005D+00      0.251922D-01      0.280301D-01
   zz         0.258099D+02      0.382464D+01      0.425548D+01

 ----------------------------------------------------------------------

 Dipole orientation:
     6         -0.06471989          0.47106472          1.34721687
     1          1.70188545          0.66271282          2.42461181
     1         -0.86266325          2.37552725          1.09166354
     6          0.45899317         -0.60774264         -1.27105020
     1         -1.32279754         -1.30076707         -2.07088172
     1          1.81196037         -2.17399602         -1.20531847
     9          1.40836178          1.27084354         -2.80637054
     8         -1.79920207         -1.18738058          2.53610198
     1         -1.97565619         -0.68197118          4.27142818

 Electric dipole moment (dipole orientation):
 (Debye = 10**-18 statcoulomb cm , SI units = C m)
                  (au)            (Debye)         (10**-30 SI)
   Tot        0.728949D+00      0.185280D+01      0.618029D+01
   x          0.000000D+00      0.000000D+00      0.000000D+00
   y          0.000000D+00      0.000000D+00      0.000000D+00
   z          0.728949D+00      0.185280D+01      0.618029D+01

 Dipole polarizability, Alpha (dipole orientation).
 (esu units = cm**3 , SI units = C**2 m**2 J**-1)
 Alpha(0;0):
               (au)            (10**-24 esu)      (10**-40 SI)
   iso        0.283068D+02      0.419463D+01      0.466716D+01
   aniso      0.500965D+01      0.742353D+00      0.825979D+00
   xx         0.270151D+02      0.400323D+01      0.445419D+01
   yx         0.895320D+00      0.132673D+00      0.147618D+00
   yy         0.272531D+02      0.403850D+01      0.449344D+01
   zx        -0.184929D+01     -0.274037D+00     -0.304908D+00
   zy        -0.675073D-01     -0.100035D-01     -0.111304D-01
   zz         0.306521D+02      0.454217D+01      0.505384D+01

 ----------------------------------------------------------------------
 Unable to Open any file for archive entry.
 1\1\GINC-COMPUTE-2-2\Freq\RB3LYP\6-31G(2df,p)\C2H5F1O1\JINGDAN2\05-Dec
 -2024\0\\# freq b3lyp/6-31g(2df,p)\\energy: -15.614184499692 gnorm: 0.
 000439253721 xtb: 6.6.1 (8d0f1dd)\\0,1\C,-0.560342,0.496998,0.102818\H
 ,-0.602412,1.058414,1.047444\H,-0.372279,1.217417,-0.708275\C,0.600643
 ,-0.490059,0.117895\H,0.44458,-1.227281,-0.678856\H,0.676676,-1.017563
 ,1.075349\F,1.778973,0.185764,-0.117736\O,-1.737926,-0.258312,-0.12358
 \H,-2.495713,0.32199,-0.011672\\Version=ES64L-G16RevC.01\State=1-A\HF=
 -254.2799191\RMSD=9.243e-09\RMSF=8.176e-04\ZeroPoint=0.0727904\Thermal
 =0.0777863\ETot=-254.2021328\HTot=-254.2011886\GTot=-254.2347503\Dipol
 e=-0.6234394,0.2935583,0.237725\DipoleDeriv=0.6401175,0.2028151,0.0197
 971,0.2867121,0.3360769,0.0247458,0.0417978,0.0234088,0.3990792,-0.044
 471,0.0175788,0.0108894,-0.021886,-0.0538083,-0.0910527,-0.0067055,-0.
 1214132,-0.1387116,-0.0446765,-0.030659,0.0195837,-0.0508664,-0.086977
 2,0.0861559,0.0301627,0.1185868,-0.0952708,0.8030676,0.1686926,-0.0477
 219,0.2047265,0.4688109,-0.0532426,-0.0671373,-0.0406361,0.4237776,-0.
 0040273,-0.0149438,0.0004873,-0.0213287,-0.0558167,-0.0688618,-0.01065
 25,-0.1053261,-0.0674972,-0.0198295,0.0264924,-0.0264637,0.0054281,-0.
 0269443,0.068376,-0.0116314,0.1054484,-0.1118074,-0.7620142,-0.186707,
 0.0660094,-0.2279395,-0.3645012,0.0470233,0.0895462,0.0474064,-0.24918
 43,-0.7926007,-0.2393412,-0.0511524,-0.2522316,-0.3980948,0.018632,-0.
 0695364,0.0019771,-0.4850529,0.224434,0.0560721,0.0085712,0.0773854,0.
 1812546,-0.031776,0.0041565,-0.0294522,0.3246675\Polar=31.3484727,-0.6
 651797,27.7619375,0.0511852,0.1700051,25.8099167\Quadrupole=-0.3813627
 ,0.2542796,0.1270832,-2.8842054,-0.1851493,-0.0325791\PG=C01 [X(C2H5F1
 O1)]\NImag=0\\0.48143459,-0.00706839,0.54263871,-0.02414011,0.00407435
 ,0.58424563,-0.05320835,0.01132815,0.01900651,0.05932513,0.00912377,-0
 .10653692,-0.09697655,-0.00453011,0.12048803,0.01808825,-0.10103018,-0
 .23805673,-0.01259802,0.11542542,0.25307739,-0.05254250,-0.01517491,0.
 02418619,0.00319069,-0.00098161,0.00370701,0.06447884,-0.01619057,-0.1
 4548310,0.11161284,0.00318855,0.01064764,-0.01188223,0.02920898,0.1649
 1526,0.02410624,0.11421808,-0.19530811,0.00275734,0.01759986,-0.021765
 44,-0.02820479,-0.12696342,0.20223317,-0.11883604,0.06964489,-0.003732
 14,0.00043400,0.00180512,-0.00171206,0.00175987,-0.00142657,0.00116573
 ,0.47495281,0.07150700,-0.14770191,0.00061635,0.01511707,-0.01268710,0
 .00225519,0.01709653,-0.01738507,0.00144396,0.00868110,0.54471074,-0.0
 0051033,-0.00100952,-0.08497463,0.02339066,-0.02038861,0.00127073,-0.0
 2002449,0.02183622,-0.00156572,0.02343891,0.00227028,0.61382654,0.0020
 8273,0.01732559,0.01906520,-0.00423031,0.00289420,-0.00053879,0.000761
 63,-0.00050848,-0.00032978,-0.05148907,-0.01231196,-0.01734848,0.06464
 941,0.00031793,-0.01672019,-0.02120236,0.00322912,-0.00235170,0.000706
 83,-0.00062523,0.00080680,0.00020807,-0.01533373,-0.15787016,-0.118532
 75,0.02712554,0.17697765,-0.00109513,0.00007953,0.00002706,-0.00013742
 ,-0.00008788,0.00147902,0.00032942,-0.00023546,0.00078980,-0.02216740,
 -0.12410017,-0.19973287,0.02386177,0.13498393,0.20370659,0.00050863,0.
 01405423,-0.02285734,0.00120562,-0.00093474,0.00053739,-0.00433724,0.0
 0315317,0.00001418,-0.05339935,0.01526911,-0.02999549,0.00355480,0.003
 07341,-0.00216427,0.06174328,0.00343396,-0.01055936,0.02049756,-0.0010
 5892,0.00102378,-0.00016530,0.00282592,-0.00239701,0.00024578,0.012912
 19,-0.10332818,0.09621030,-0.00111257,0.01101022,-0.01858244,-0.007576
 77,0.11514292,0.00195255,-0.00249502,0.00124780,-0.00047002,0.00015527
 ,0.00141506,0.00040827,-0.00070853,0.00144304,-0.02436498,0.10163870,-
 0.25380026,-0.00406325,0.01111572,-0.01976796,0.01923064,-0.11560544,0
 .26808149,-0.03973286,-0.02900571,0.00645334,0.00062774,0.00135010,0.0
 0156975,0.00254589,-0.00168715,-0.00103679,-0.21264505,-0.08540879,0.0
 2663249,-0.01813474,-0.01563100,0.00069913,-0.01068079,-0.01060288,0.0
 0881659,0.29071065,0.00785027,0.01161658,-0.00085877,-0.00152729,0.001
 30363,0.00016894,-0.00093543,0.00334075,-0.00144352,-0.08649644,-0.117
 61888,0.01743842,-0.03266533,-0.01444937,0.00700452,-0.02586518,-0.011
 69880,0.00601748,0.13385863,0.12772036,0.00284855,0.00345164,0.0022131
 0,-0.00162710,0.00069225,0.00036814,0.00019266,-0.00206246,0.00081749,
 0.03003999,0.01802184,-0.07612168,-0.02052493,-0.00883885,0.01302595,0
 .03358187,0.01792000,0.00098511,-0.04401626,-0.02838199,0.05702817,-0.
 18824777,-0.08569078,-0.02254987,-0.01003580,-0.00943166,-0.00835348,-
 0.01720307,-0.01642739,0.00074598,-0.03733463,-0.02389650,-0.00500924,
 0.00239598,-0.00159876,0.00061792,0.00118721,0.00095366,-0.00130774,-0
 .01068060,0.00495854,-0.00032618,0.58628001,-0.04030040,-0.13781082,-0
 .01907449,-0.02503769,-0.01213051,-0.00486661,-0.03051884,-0.01433209,
 -0.00557994,0.01178149,0.01470199,0.00320255,-0.00068370,0.00218885,0.
 00049661,-0.00108960,0.00067873,-0.00011677,0.00876699,-0.00074984,-0.
 00115610,-0.12744554,0.37243911,-0.01173079,-0.02101815,-0.06802905,-0
 .02982365,-0.01737142,0.00142927,0.01858365,0.00925443,0.01314869,-0.0
 0193993,-0.00026373,0.00154425,-0.00008024,0.00120104,0.00027568,0.001
 38798,-0.00065698,0.00034296,0.00153706,-0.00040277,0.00118587,-0.0153
 6572,0.07413443,0.06122232,-0.03145843,0.02458692,0.00456823,0.0026912
 8,0.00070493,-0.00070006,0.00134588,0.00068945,0.00078189,-0.00344253,
 -0.00605357,-0.00057403,0.00040957,-0.00055728,0.00005599,0.00021784,0
 .00022540,-0.00020206,-0.00201024,0.00082223,-0.00016859,-0.32636133,0
 .20452728,0.03743164,0.35860797,-0.02867359,0.01055699,0.00131108,-0.0
 0070889,0.00024316,-0.00061206,-0.00089542,-0.00011318,0.00027112,-0.0
 0156805,-0.00282144,-0.00102689,-0.00006330,0.00040790,0.00044136,-0.0
 0008363,0.00012769,-0.00000139,-0.00164020,0.00053556,0.00035368,0.258
 57844,-0.22498543,-0.04487685,-0.22494536,0.21604875,-0.00951922,0.003
 72928,-0.00136507,-0.00049830,0.00095168,0.00078258,0.00082209,-0.0008
 5139,0.00020709,-0.00072811,-0.00188241,-0.00044635,-0.00004149,0.0003
 5836,0.00019674,0.00026504,0.00013651,0.00005275,-0.00065532,0.0004576
 9,0.00049785,0.05154832,-0.04703968,-0.01112000,-0.04119301,0.04413995
 ,0.01119442\\-0.00036887,-0.00040268,0.00192769,0.00000308,-0.00000358
 ,-0.00000527,-0.00001131,0.00000103,0.00000015,0.00037070,0.00046105,0
 .00220795,0.00000580,0.00000252,-0.00000452,0.00000467,-0.00000057,-0.
 00000251,-0.00025098,-0.00031557,-0.00210314,0.00024413,0.00026688,-0.
 00202277,0.00000277,-0.00000908,0.00000241\\\@
 The archive entry for this job was punched.


 THERE ONCE WAS A GIRL NAMED IRENE,
 WHO LIVED ON DISTILLED KEROSENE,
      BUT SHE STARTED ABSORBIN'
      A NEW HYDROCARBON,
 AND SINCE THEN HAS NEVER BENZENE.
 Job cpu time:       0 days  0 hours  7 minutes 13.5 seconds.
 Elapsed time:       0 days  0 hours  0 minutes 55.3 seconds.
 File lengths (MBytes):  RWF=     21 Int=      0 D2E=      0 Chk=      2 Scr=      1
 Normal termination of Gaussian 16 at Thu Dec  5 18:23:59 2024.
