 Entering Gaussian System, Link 0=g16
 Input=rotation_std14.gjf
 Output=rotation_std14.log
 Initial command:
 /share/apps/gaussian/g16/l1.exe "/scratch/jingdan2/247441/Gau-188465.inp" -scrdir="/scratch/jingdan2/247441/"
 Entering Link 1 = /share/apps/gaussian/g16/l1.exe PID=    188472.
  
 Copyright (c) 1988-2019, Gaussian, Inc.  All Rights Reserved.
  
 This is part of the Gaussian(R) 16 program.  It is based on
 the Gaussian(R) 09 system (copyright 2009, Gaussian, Inc.),
 the Gaussian(R) 03 system (copyright 2003, Gaussian, Inc.),
 the Gaussian(R) 98 system (copyright 1998, Gaussian, Inc.),
 the Gaussian(R) 94 system (copyright 1995, Gaussian, Inc.),
 the Gaussian 92(TM) system (copyright 1992, Gaussian, Inc.),
 the Gaussian 90(TM) system (copyright 1990, Gaussian, Inc.),
 the Gaussian 88(TM) system (copyright 1988, Gaussian, Inc.),
 the Gaussian 86(TM) system (copyright 1986, Carnegie Mellon
 University), and the Gaussian 82(TM) system (copyright 1983,
 Carnegie Mellon University). Gaussian is a federally registered
 trademark of Gaussian, Inc.
  
 This software contains proprietary and confidential information,
 including trade secrets, belonging to Gaussian, Inc.
  
 This software is provided under written license and may be
 used, copied, transmitted, or stored only in accord with that
 written license.
  
 The following legend is applicable only to US Government
 contracts under FAR:
  
                    RESTRICTED RIGHTS LEGEND
  
 Use, reproduction and disclosure by the US Government is
 subject to restrictions as set forth in subparagraphs (a)
 and (c) of the Commercial Computer Software - Restricted
 Rights clause in FAR 52.227-19.
  
 Gaussian, Inc.
 340 Quinnipiac St., Bldg. 40, Wallingford CT 06492
  
  
 ---------------------------------------------------------------
 Warning -- This program may not be used in any manner that
 competes with the business of Gaussian, Inc. or will provide
 assistance to any competitor of Gaussian, Inc.  The licensee
 of this program is prohibited from giving any competitor of
 Gaussian, Inc. access to this program.  By using this program,
 the user acknowledges that Gaussian, Inc. is engaged in the
 business of creating and licensing software in the field of
 computational chemistry and represents and warrants to the
 licensee that it is not a competitor of Gaussian, Inc. and that
 it will not use this program in any manner prohibited above.
 ---------------------------------------------------------------
  

 Cite this work as:
 Gaussian 16, Revision C.01,
 M. J. Frisch, G. W. Trucks, H. B. Schlegel, G. E. Scuseria, 
 M. A. Robb, J. R. Cheeseman, G. Scalmani, V. Barone, 
 G. A. Petersson, H. Nakatsuji, X. Li, M. Caricato, A. V. Marenich, 
 J. Bloino, B. G. Janesko, R. Gomperts, B. Mennucci, H. P. Hratchian, 
 J. V. Ortiz, A. F. Izmaylov, J. L. Sonnenberg, D. Williams-Young, 
 F. Ding, F. Lipparini, F. Egidi, J. Goings, B. Peng, A. Petrone, 
 T. Henderson, D. Ranasinghe, V. G. Zakrzewski, J. Gao, N. Rega, 
 G. Zheng, W. Liang, M. Hada, M. Ehara, K. Toyota, R. Fukuda, 
 J. Hasegawa, M. Ishida, T. Nakajima, Y. Honda, O. Kitao, H. Nakai, 
 T. Vreven, K. Throssell, J. A. Montgomery, Jr., J. E. Peralta, 
 F. Ogliaro, M. J. Bearpark, J. J. Heyd, E. N. Brothers, K. N. Kudin, 
 V. N. Staroverov, T. A. Keith, R. Kobayashi, J. Normand, 
 K. Raghavachari, A. P. Rendell, J. C. Burant, S. S. Iyengar, 
 J. Tomasi, M. Cossi, J. M. Millam, M. Klene, C. Adamo, R. Cammi, 
 J. W. Ochterski, R. L. Martin, K. Morokuma, O. Farkas, 
 J. B. Foresman, and D. J. Fox, Gaussian, Inc., Wallingford CT, 2019.
 
 ******************************************
 Gaussian 16:  ES64L-G16RevC.01  3-Jul-2019
                 5-Dec-2024 
 ******************************************
 %nprocshared=8
 Will use up to    8 processors via shared memory.
 %mem=8GB
 -------------------------
 # freq b3lyp/6-31g(2df,p)
 -------------------------
 1/10=4,30=1,38=1/1,3;
 2/12=2,17=6,18=5,40=1/2;
 3/5=1,6=6,7=104,11=2,25=1,30=1,71=2,74=-5,140=1/1,2,3;
 4//1;
 5/5=2,38=5,98=1/2;
 8/6=4,10=90,11=11/1;
 11/6=1,8=1,9=11,15=111,16=1/1,2,10;
 10/6=1/2;
 6/7=2,8=2,9=2,10=2,28=1/1;
 7/8=1,10=1,25=1/1,2,3,16;
 1/10=4,30=1/3;
 99//99;
 -------------------------------------------------------------------
 energy: -15.614184499692 gnorm: 0.000439253721 xtb: 6.6.1 (8d0f1dd)
 -------------------------------------------------------------------
 Symbolic Z-matrix:
 Charge =  0 Multiplicity = 1
 C                    -0.68804   0.60024   0.22071 
 H                    -0.72066   0.71757   1.31606 
 H                    -1.14895   1.49817  -0.22387 
 C                     0.76089   0.54619  -0.23183 
 H                     1.31766   1.39115   0.19329 
 H                     0.81384   0.60183  -1.32692 
 F                     1.34346  -0.63639   0.1561 
 O                    -1.31975  -0.59859  -0.17756 
 H                    -2.23214  -0.5711    0.12374 
 

 GradGradGradGradGradGradGradGradGradGradGradGradGradGradGradGradGradGrad
 Berny optimization.
 Initialization pass.
 Trust Radius=3.00D-01 FncErr=1.00D-07 GrdErr=1.00D-07 EigMax=2.50D+02 EigMin=1.00D-04
 Number of steps in this run=      2 maximum allowed number of steps=      2.
 GradGradGradGradGradGradGradGradGradGradGradGradGradGradGradGradGradGrad

                          Input orientation:                          
 ---------------------------------------------------------------------
 Center     Atomic      Atomic             Coordinates (Angstroms)
 Number     Number       Type             X           Y           Z
 ---------------------------------------------------------------------
      1          6           0       -0.688042    0.600239    0.220713
      2          1           0       -0.720655    0.717568    1.316060
      3          1           0       -1.148950    1.498170   -0.223871
      4          6           0        0.760887    0.546193   -0.231826
      5          1           0        1.317661    1.391151    0.193285
      6          1           0        0.813844    0.601831   -1.326923
      7          9           0        1.343463   -0.636390    0.156100
      8          8           0       -1.319750   -0.598589   -0.177564
      9          1           0       -2.232143   -0.571095    0.123736
 ---------------------------------------------------------------------
                    Distance matrix (angstroms):
                    1          2          3          4          5
     1  C    0.000000
     2  H    1.102096   0.000000
     3  H    1.102892   1.778810   0.000000
     4  C    1.518917   2.149485   2.133964   0.000000
     5  H    2.156186   2.422616   2.503925   1.097575   0.000000
     6  H    2.156581   3.058340   2.423367   1.097788   1.785466
     7  F    2.379168   2.727507   3.303460   1.374185   2.028046
     8  O    1.412398   2.078965   2.104214   2.375399   3.324535
     9  H    1.940535   2.316654   2.361355   3.214496   4.056643
                    6          7          8          9
     6  H    0.000000
     7  F    2.003259   0.000000
     8  O    2.704488   2.684300   0.000000
     9  H    3.571863   3.576349   0.961248   0.000000
 Stoichiometry    C2H5FO
 Framework group  C1[X(C2H5FO)]
 Deg. of freedom    21
 Full point group                 C1      NOp   1
 Largest Abelian subgroup         C1      NOp   1
 Largest concise Abelian subgroup C1      NOp   1
                         Standard orientation:                         
 ---------------------------------------------------------------------
 Center     Atomic      Atomic             Coordinates (Angstroms)
 Number     Number       Type             X           Y           Z
 ---------------------------------------------------------------------
      1          6           0        0.688042    0.600239   -0.220713
      2          1           0        0.720655    0.717568   -1.316060
      3          1           0        1.148950    1.498170    0.223871
      4          6           0       -0.760887    0.546193    0.231826
      5          1           0       -1.317661    1.391151   -0.193285
      6          1           0       -0.813844    0.601831    1.326923
      7          9           0       -1.343463   -0.636390   -0.156100
      8          8           0        1.319750   -0.598589    0.177564
      9          1           0        2.232143   -0.571095   -0.123736
 ---------------------------------------------------------------------
 Rotational constants (GHZ):          15.7076209           5.6285513           4.5767586
 Standard basis: 6-31G(2df,p) (6D, 7F)
 There are   149 symmetry adapted cartesian basis functions of A   symmetry.
 There are   137 symmetry adapted basis functions of A   symmetry.
   137 basis functions,   211 primitive gaussians,   149 cartesian basis functions
    17 alpha electrons       17 beta electrons
       nuclear repulsion energy       130.9794194435 Hartrees.
 NAtoms=    9 NActive=    9 NUniq=    9 SFac= 1.00D+00 NAtFMM=   60 NAOKFM=F Big=F
 Integral buffers will be    131072 words long.
 Raffenetti 2 integral format.
 Two-electron integral symmetry is turned on.
 One-electron integrals computed using PRISM.
 NBasis=   137 RedAO= T EigKep=  1.25D-03  NBF=   137
 NBsUse=   137 1.00D-06 EigRej= -1.00D+00 NBFU=   137
 ExpMin= 1.61D-01 ExpMax= 7.00D+03 ExpMxC= 1.05D+03 IAcc=3 IRadAn=         5 AccDes= 0.00D+00
 Harris functional with IExCor=  402 and IRadAn=       5 diagonalized for initial guess.
 HarFok:  IExCor=  402 AccDes= 0.00D+00 IRadAn=         5 IDoV= 1 UseB2=F ITyADJ=14
 ICtDFT=  3500011 ScaDFX=  1.000000  1.000000  1.000000  1.000000
 FoFCou: FMM=F IPFlag=           0 FMFlag=      100000 FMFlg1=           0
         NFxFlg=           0 DoJE=T BraDBF=F KetDBF=T FulRan=T
         wScrn=  0.000000 ICntrl=       500 IOpCl=  0 I1Cent=   200000004 NGrid=           0
         NMat0=    1 NMatS0=      1 NMatT0=    0 NMatD0=    1 NMtDS0=    0 NMtDT0=    0
 Petite list used in FoFCou.
 Keep R1 ints in memory in canonical form, NReq=52495207.
 Requested convergence on RMS density matrix=1.00D-08 within 128 cycles.
 Requested convergence on MAX density matrix=1.00D-06.
 Requested convergence on             energy=1.00D-06.
 No special actions if energy rises.
 Integral accuracy reduced to 1.0D-05 until final iterations.
 Initial convergence to 1.0D-05 achieved.  Increase integral accuracy.
 SCF Done:  E(RB3LYP) =  -254.279375426     A.U. after   12 cycles
            NFock= 12  Conv=0.41D-08     -V/T= 2.0064
 DoSCS=F DFT=T ScalE2(SS,OS)=  1.000000  1.000000
 Range of M.O.s used for correlation:     1   137
 NBasis=   137 NAE=    17 NBE=    17 NFC=     0 NFV=     0
 NROrb=    137 NOA=    17 NOB=    17 NVA=   120 NVB=   120

 **** Warning!!: The largest alpha MO coefficient is  0.18584141D+02

 Symmetrizing basis deriv contribution to polar:
 IMax=3 JMax=2 DiffMx= 0.00D+00
 G2DrvN: will do    10 centers at a time, making    1 passes.
 Calling FoFCou, ICntrl=  3107 FMM=F I1Cent=   0 AccDes= 0.00D+00.
 End of G2Drv F.D. properties file   721 does not exist.
 End of G2Drv F.D. properties file   722 does not exist.
 End of G2Drv F.D. properties file   788 does not exist.
          IDoAtm=111111111
          Differentiating once with respect to electric field.
                with respect to dipole field.
          Differentiating once with respect to nuclear coordinates.
 Keep R1 ints in memory in canonical form, NReq=52475937.
          There are    30 degrees of freedom in the 1st order CPHF.  IDoFFX=6 NUNeed=     3.
     27 vectors produced by pass  0 Test12= 6.80D-15 3.33D-09 XBig12= 1.58D+01 1.23D+00.
 AX will form    27 AO Fock derivatives at one time.
     27 vectors produced by pass  1 Test12= 6.80D-15 3.33D-09 XBig12= 1.30D+00 2.27D-01.
     27 vectors produced by pass  2 Test12= 6.80D-15 3.33D-09 XBig12= 1.66D-02 3.39D-02.
     27 vectors produced by pass  3 Test12= 6.80D-15 3.33D-09 XBig12= 5.27D-05 1.10D-03.
     27 vectors produced by pass  4 Test12= 6.80D-15 3.33D-09 XBig12= 7.60D-08 4.28D-05.
     16 vectors produced by pass  5 Test12= 6.80D-15 3.33D-09 XBig12= 6.40D-11 9.77D-07.
      3 vectors produced by pass  6 Test12= 6.80D-15 3.33D-09 XBig12= 4.59D-14 3.90D-08.
 InvSVY:  IOpt=1 It=  1 EMax= 2.22D-15
 Solved reduced A of dimension   154 with    30 vectors.
 Isotropic polarizability for W=    0.000000       28.61 Bohr**3.
 End of Minotr F.D. properties file   721 does not exist.
 End of Minotr F.D. properties file   722 does not exist.
 End of Minotr F.D. properties file   788 does not exist.

 **********************************************************************

            Population analysis using the SCF Density.

 **********************************************************************

 Orbital symmetries:
       Occupied  (A) (A) (A) (A) (A) (A) (A) (A) (A) (A) (A) (A)
                 (A) (A) (A) (A) (A)
       Virtual   (A) (A) (A) (A) (A) (A) (A) (A) (A) (A) (A) (A)
                 (A) (A) (A) (A) (A) (A) (A) (A) (A) (A) (A) (A)
                 (A) (A) (A) (A) (A) (A) (A) (A) (A) (A) (A) (A)
                 (A) (A) (A) (A) (A) (A) (A) (A) (A) (A) (A) (A)
                 (A) (A) (A) (A) (A) (A) (A) (A) (A) (A) (A) (A)
                 (A) (A) (A) (A) (A) (A) (A) (A) (A) (A) (A) (A)
                 (A) (A) (A) (A) (A) (A) (A) (A) (A) (A) (A) (A)
                 (A) (A) (A) (A) (A) (A) (A) (A) (A) (A) (A) (A)
                 (A) (A) (A) (A) (A) (A) (A) (A) (A) (A) (A) (A)
                 (A) (A) (A) (A) (A) (A) (A) (A) (A) (A) (A) (A)
 The electronic state is 1-A.
 Alpha  occ. eigenvalues --  -24.66159 -19.13921 -10.25244 -10.23561  -1.17786
 Alpha  occ. eigenvalues --   -1.02184  -0.75007  -0.61746  -0.53100  -0.49738
 Alpha  occ. eigenvalues --   -0.46319  -0.44773  -0.42321  -0.36222  -0.32875
 Alpha  occ. eigenvalues --   -0.31713  -0.27368
 Alpha virt. eigenvalues --    0.06900   0.11263   0.12906   0.15097   0.16470
 Alpha virt. eigenvalues --    0.18620   0.21609   0.23081   0.43427   0.47291
 Alpha virt. eigenvalues --    0.49038   0.50439   0.55662   0.60301   0.65568
 Alpha virt. eigenvalues --    0.69243   0.70292   0.71168   0.76931   0.78933
 Alpha virt. eigenvalues --    0.82131   0.83641   0.88182   0.90109   0.91373
 Alpha virt. eigenvalues --    0.93470   0.95405   1.02995   1.03805   1.07226
 Alpha virt. eigenvalues --    1.10596   1.15025   1.24080   1.28009   1.30795
 Alpha virt. eigenvalues --    1.35504   1.39579   1.44129   1.52527   1.57493
 Alpha virt. eigenvalues --    1.60608   1.63510   1.67665   1.72983   1.75360
 Alpha virt. eigenvalues --    1.84114   1.91347   2.07091   2.13099   2.24278
 Alpha virt. eigenvalues --    2.27736   2.37121   2.44617   2.53986   2.54604
 Alpha virt. eigenvalues --    2.59020   2.66399   2.70248   2.77770   2.83099
 Alpha virt. eigenvalues --    2.87631   2.88682   2.93755   3.00175   3.07078
 Alpha virt. eigenvalues --    3.15390   3.30168   3.31660   3.36151   3.37734
 Alpha virt. eigenvalues --    3.40271   3.49745   3.50347   3.64909   3.76162
 Alpha virt. eigenvalues --    3.82573   3.88892   3.98872   4.13449   4.22176
 Alpha virt. eigenvalues --    4.24858   4.27690   4.32479   4.35111   4.42923
 Alpha virt. eigenvalues --    4.47493   4.48620   4.51288   4.54566   4.59277
 Alpha virt. eigenvalues --    4.59872   4.63692   4.66289   4.69453   4.75790
 Alpha virt. eigenvalues --    4.77538   4.79850   4.87177   4.94763   5.23873
 Alpha virt. eigenvalues --    5.32498   5.41793   5.47079   5.50635   5.76031
 Alpha virt. eigenvalues --    5.93355   6.00062   6.05994   6.67527   6.68327
 Alpha virt. eigenvalues --    6.80444   6.80748   7.03277   7.26090   7.32816
 Alpha virt. eigenvalues --    7.33794   9.54552  11.05644  11.80431  13.14216
          Condensed to atoms (all electrons):
               1          2          3          4          5          6
     1  C    4.836972   0.359187   0.338784   0.361914  -0.043253  -0.035517
     2  H    0.359187   0.668029  -0.056315  -0.028533  -0.004312   0.006983
     3  H    0.338784  -0.056315   0.686534  -0.025152   0.004700  -0.003442
     4  C    0.361914  -0.028533  -0.025152   4.665619   0.351990   0.352497
     5  H   -0.043253  -0.004312   0.004700   0.351990   0.663296  -0.050789
     6  H   -0.035517   0.006983  -0.003442   0.352497  -0.050789   0.651358
     7  F   -0.033180  -0.000956   0.001944   0.385987  -0.021985  -0.025192
     8  O    0.353727  -0.035452  -0.030358  -0.032843   0.002289  -0.001652
     9  H   -0.049676  -0.003597  -0.004954   0.006083  -0.000269  -0.000228
               7          8          9
     1  C   -0.033180   0.353727  -0.049676
     2  H   -0.000956  -0.035452  -0.003597
     3  H    0.001944  -0.030358  -0.004954
     4  C    0.385987  -0.032843   0.006083
     5  H   -0.021985   0.002289  -0.000269
     6  H   -0.025192  -0.001652  -0.000228
     7  F    8.839746   0.001590  -0.000011
     8  O    0.001590   7.840562   0.306746
     9  H   -0.000011   0.306746   0.454372
 Mulliken charges:
               1
     1  C   -0.088957
     2  H    0.094965
     3  H    0.088259
     4  C   -0.037563
     5  H    0.098334
     6  H    0.105983
     7  F   -0.147945
     8  O   -0.404609
     9  H    0.291534
 Sum of Mulliken charges =  -0.00000
 Mulliken charges with hydrogens summed into heavy atoms:
               1
     1  C    0.094267
     4  C    0.166754
     7  F   -0.147945
     8  O   -0.113075
 APT charges:
               1
     1  C    0.471418
     2  H   -0.085696
     3  H   -0.077948
     4  C    0.577259
     5  H   -0.051221
     6  H   -0.054302
     7  F   -0.458007
     8  O   -0.563006
     9  H    0.241503
 Sum of APT charges =  -0.00000
 APT charges with hydrogens summed into heavy atoms:
               1
     1  C    0.307774
     4  C    0.471736
     7  F   -0.458007
     8  O   -0.321503
 Electronic spatial extent (au):  <R**2>=            286.9065
 Charge=              0.0000 electrons
 Dipole moment (field-independent basis, Debye):
    X=              1.5650    Y=              2.2264    Z=             -0.3512  Tot=              2.7440
 Quadrupole moment (field-independent basis, Debye-Ang):
   XX=            -20.3884   YY=            -24.0760   ZZ=            -23.2680
   XY=             -1.3188   XZ=             -1.7500   YZ=              0.3293
 Traceless Quadrupole moment (field-independent basis, Debye-Ang):
   XX=              2.1891   YY=             -1.4985   ZZ=             -0.6905
   XY=             -1.3188   XZ=             -1.7500   YZ=              0.3293
 Octapole moment (field-independent basis, Debye-Ang**2):
  XXX=             11.6955  YYY=             -6.2657  ZZZ=             -0.5681  XYY=             -1.3483
  XXY=             -2.6139  XXZ=             -2.0868  XZZ=             -2.0570  YZZ=             -2.0076
  YYZ=             -0.3015  XYZ=              1.0564
 Hexadecapole moment (field-independent basis, Debye-Ang**3):
 XXXX=           -158.6026 YYYY=            -86.0203 ZZZZ=            -39.1249 XXXY=             -7.8151
 XXXZ=             -2.2186 YYYX=              2.3428 YYYZ=              0.7635 ZZZX=              0.8481
 ZZZY=              0.7677 XXYY=            -44.7874 XXZZ=            -39.4421 YYZZ=            -21.4787
 XXYZ=              1.2002 YYXZ=              1.2432 ZZXY=              1.0500
 N-N= 1.309794194435D+02 E-N=-8.617151379637D+02  KE= 2.526733275524D+02
  Exact polarizability:      30.980      -1.396      28.397      -0.778      -0.288      26.450
 Approx polarizability:      38.270      -0.523      39.811      -0.211      -0.443      36.043
 Calling FoFJK, ICntrl=    100127 FMM=F ISym2X=0 I1Cent= 0 IOpClX= 0 NMat=1 NMatS=1 NMatT=0.
 Full mass-weighted force constant matrix:
 Low frequencies ---  -26.5599   -7.1326   -0.0010   -0.0004   -0.0003   24.8561
 Low frequencies ---  148.1351  228.8444  301.2670
 Diagonal vibrational polarizability:
        8.2722109      18.8142635      49.7815740
 Harmonic frequencies (cm**-1), IR intensities (KM/Mole), Raman scattering
 activities (A**4/AMU), depolarization ratios for plane and unpolarized
 incident light, reduced masses (AMU), force constants (mDyne/A),
 and normal coordinates:
                      1                      2                      3
                      A                      A                      A
 Frequencies --    148.0318               228.8279               301.2441
 Red. masses --      2.9802                 1.1508                 2.9537
 Frc consts  --      0.0385                 0.0355                 0.1579
 IR Inten    --     11.8864               101.7486                 5.6901
  Atom  AN      X      Y      Z        X      Y      Z        X      Y      Z
     1   6    -0.04  -0.09  -0.09    -0.00  -0.02  -0.03     0.07  -0.01   0.13
     2   1    -0.22  -0.37  -0.13    -0.01  -0.01  -0.03     0.28   0.24   0.17
     3   1    -0.07   0.08  -0.40    -0.02  -0.02  -0.02    -0.11  -0.05   0.40
     4   6     0.05  -0.09   0.11     0.01  -0.02   0.01    -0.06  -0.01  -0.13
     5   1     0.07   0.07   0.40     0.03   0.01   0.05     0.12  -0.04  -0.42
     6   1     0.23  -0.35   0.13     0.05  -0.04   0.01    -0.29   0.26  -0.16
     7   9    -0.15   0.07  -0.10    -0.06   0.02   0.00    -0.19  -0.01   0.06
     8   8     0.17   0.10   0.14     0.04  -0.01  -0.05     0.21   0.00  -0.05
     9   1     0.01  -0.06  -0.36     0.31   0.46   0.82     0.10   0.03  -0.38
                      4                      5                      6
                      A                      A                      A
 Frequencies --    523.7635               880.1677               899.5904
 Red. masses --      2.5208                 1.7711                 2.4008
 Frc consts  --      0.4074                 0.8084                 1.1447
 IR Inten    --     17.4633                20.8234                21.1300
  Atom  AN      X      Y      Z        X      Y      Z        X      Y      Z
     1   6    -0.14  -0.13   0.07     0.16   0.09   0.04    -0.08  -0.10   0.09
     2   1    -0.47  -0.34   0.04    -0.32  -0.21  -0.02    -0.28  -0.05   0.08
     3   1     0.03  -0.07  -0.25     0.49   0.14  -0.42    -0.29   0.05   0.03
     4   6    -0.14   0.12   0.07     0.00   0.01   0.10     0.22  -0.13  -0.01
     5   1     0.02   0.06  -0.25     0.10  -0.10  -0.24     0.67  -0.04  -0.43
     6   1    -0.49   0.30   0.05    -0.42   0.14   0.07    -0.15   0.18  -0.05
     7   9     0.12   0.06  -0.04    -0.07  -0.08  -0.04     0.00   0.04   0.00
     8   8     0.12  -0.07  -0.03    -0.03   0.03  -0.03    -0.10   0.12  -0.04
     9   1     0.09   0.25  -0.10     0.03  -0.23   0.14    -0.10   0.10  -0.02
                      7                      8                      9
                      A                      A                      A
 Frequencies --   1095.4768              1112.3856              1154.5725
 Red. masses --      3.0077                 3.2243                 2.3102
 Frc consts  --      2.1266                 2.3507                 1.8144
 IR Inten    --     64.3789                57.2101                29.9675
  Atom  AN      X      Y      Z        X      Y      Z        X      Y      Z
     1   6    -0.02  -0.10   0.10    -0.13   0.28   0.11     0.10  -0.07   0.17
     2   1     0.02  -0.15   0.09    -0.41  -0.27   0.05     0.04  -0.56   0.10
     3   1     0.24  -0.18   0.01    -0.14   0.50  -0.38     0.26   0.08  -0.30
     4   6     0.12   0.28  -0.03     0.13  -0.02  -0.12    -0.09  -0.09  -0.16
     5   1     0.09   0.40   0.28     0.04  -0.02   0.02    -0.28  -0.02   0.24
     6   1     0.38  -0.09  -0.02     0.23  -0.11  -0.12     0.11  -0.44  -0.12
     7   9    -0.06  -0.18  -0.04    -0.02  -0.01   0.01     0.03   0.08   0.05
     8   8    -0.04   0.05  -0.01     0.05  -0.20   0.03    -0.05   0.07  -0.06
     9   1    -0.12   0.51  -0.22    -0.00   0.24  -0.12    -0.06   0.19  -0.06
                     10                     11                     12
                      A                      A                      A
 Frequencies --   1231.8220              1269.9008              1318.6783
 Red. masses --      1.1388                 1.1398                 1.1142
 Frc consts  --      1.0181                 1.0830                 1.1415
 IR Inten    --     30.2146                 3.4396                22.1212
  Atom  AN      X      Y      Z        X      Y      Z        X      Y      Z
     1   6    -0.01   0.02  -0.03     0.03  -0.01   0.03    -0.02  -0.04   0.06
     2   1     0.09   0.06  -0.03     0.51  -0.40   0.01    -0.43   0.10   0.06
     3   1     0.46  -0.27   0.05    -0.43   0.32  -0.11     0.05  -0.09   0.08
     4   6     0.03  -0.06   0.03    -0.00   0.01   0.08     0.03   0.02  -0.03
     5   1    -0.23  -0.35  -0.17    -0.17  -0.19  -0.09    -0.43  -0.33  -0.07
     6   1     0.05   0.21   0.02     0.20   0.38   0.08     0.47   0.27  -0.01
     7   9    -0.01   0.03  -0.01    -0.01  -0.01  -0.03    -0.01   0.01  -0.02
     8   8    -0.02  -0.02   0.04    -0.02  -0.01  -0.03     0.02   0.03  -0.01
     9   1    -0.13   0.59  -0.25    -0.02   0.06  -0.04     0.08  -0.37   0.16
                     13                     14                     15
                      A                      A                      A
 Frequencies --   1429.5748              1472.1853              1503.0240
 Red. masses --      1.2719                 1.5225                 1.0882
 Frc consts  --      1.5315                 1.9442                 1.4484
 IR Inten    --     13.6839                 1.4154                 4.9478
  Atom  AN      X      Y      Z        X      Y      Z        X      Y      Z
     1   6    -0.05   0.04   0.02     0.18  -0.02  -0.03     0.01   0.03  -0.01
     2   1     0.15  -0.07   0.01    -0.60   0.11  -0.05    -0.11  -0.24  -0.03
     3   1     0.34  -0.12  -0.07    -0.41   0.18   0.20     0.04  -0.12   0.22
     4   6    -0.12  -0.06   0.01    -0.09  -0.01   0.01     0.02  -0.07  -0.04
     5   1     0.53   0.27  -0.17     0.15   0.11  -0.08    -0.02   0.26   0.60
     6   1     0.60   0.22   0.03     0.30   0.08   0.03    -0.21   0.62  -0.07
     7   9     0.01  -0.01  -0.01     0.01  -0.00  -0.00     0.00  -0.01  -0.01
     8   8     0.01   0.01  -0.01    -0.03  -0.03   0.03    -0.00   0.01  -0.00
     9   1     0.03  -0.11   0.05    -0.10   0.41  -0.17     0.00  -0.01   0.01
                     16                     17                     18
                      A                      A                      A
 Frequencies --   1512.7263              2962.2271              2990.7081
 Red. masses --      1.0896                 1.0552                 1.1023
 Frc consts  --      1.4691                 5.4556                 5.8088
 IR Inten    --      2.8705                49.4959                37.6273
  Atom  AN      X      Y      Z        X      Y      Z        X      Y      Z
     1   6     0.00  -0.07   0.04     0.03   0.05  -0.03    -0.02  -0.03  -0.08
     2   1     0.11   0.65   0.09    -0.01  -0.05   0.64    -0.04  -0.07   0.74
     3   1     0.03   0.26  -0.59    -0.32  -0.60  -0.33     0.27   0.49   0.24
     4   6    -0.01  -0.03  -0.02     0.00  -0.01   0.00    -0.00   0.00   0.02
     5   1    -0.03   0.08   0.23    -0.04   0.07  -0.04     0.03  -0.04   0.03
     6   1    -0.00   0.27  -0.02     0.00  -0.00   0.02     0.01  -0.01  -0.25
     7   9     0.00  -0.00  -0.00    -0.00  -0.00  -0.00     0.00   0.00   0.00
     8   8    -0.01  -0.01   0.01    -0.00   0.00  -0.00    -0.00   0.00   0.00
     9   1    -0.02   0.07  -0.03    -0.00   0.01  -0.00     0.00   0.00   0.00
                     19                     20                     21
                      A                      A                      A
 Frequencies --   3020.8544              3066.5285              3837.2546
 Red. masses --      1.0585                 1.1087                 1.0665
 Frc consts  --      5.6910                 6.1425                 9.2524
 IR Inten    --     56.8668                53.5811                25.2439
  Atom  AN      X      Y      Z        X      Y      Z        X      Y      Z
     1   6    -0.01  -0.01  -0.02    -0.00  -0.00  -0.01    -0.00  -0.00   0.00
     2   1    -0.01  -0.01   0.11    -0.01  -0.01   0.14     0.00  -0.00   0.00
     3   1     0.09   0.15   0.08     0.02   0.03   0.02     0.00  -0.00   0.00
     4   6     0.03  -0.04  -0.03    -0.03   0.04  -0.08     0.00   0.00  -0.00
     5   1    -0.35   0.52  -0.28     0.38  -0.54   0.28    -0.00  -0.00   0.00
     6   1    -0.02   0.02   0.69    -0.05   0.03   0.68     0.00  -0.00  -0.00
     7   9    -0.00  -0.00  -0.00     0.00  -0.00   0.00     0.00   0.00   0.00
     8   8    -0.00   0.00   0.00     0.00  -0.00   0.00    -0.06   0.00   0.02
     9   1     0.00   0.00   0.00     0.00  -0.00   0.00     0.95   0.02  -0.31

 -------------------
 - Thermochemistry -
 -------------------
 Temperature   298.150 Kelvin.  Pressure   1.00000 Atm.
 Atom     1 has atomic number  6 and mass  12.00000
 Atom     2 has atomic number  1 and mass   1.00783
 Atom     3 has atomic number  1 and mass   1.00783
 Atom     4 has atomic number  6 and mass  12.00000
 Atom     5 has atomic number  1 and mass   1.00783
 Atom     6 has atomic number  1 and mass   1.00783
 Atom     7 has atomic number  9 and mass  18.99840
 Atom     8 has atomic number  8 and mass  15.99491
 Atom     9 has atomic number  1 and mass   1.00783
 Molecular mass:    64.03244 amu.
 Principal axes and moments of inertia in atomic units:
                           1         2         3
     Eigenvalues --   114.89590 320.64045 394.32738
           X            0.99908  -0.03460  -0.02531
           Y            0.03455   0.99940  -0.00256
           Z            0.02538   0.00168   0.99968
 This molecule is an asymmetric top.
 Rotational symmetry number  1.
 Rotational temperatures (Kelvin)      0.75385     0.27013     0.21965
 Rotational constants (GHZ):          15.70762     5.62855     4.57676
 Zero-point vibrational energy     191160.5 (Joules/Mol)
                                   45.68846 (Kcal/Mol)
 Warning -- explicit consideration of   4 degrees of freedom as
           vibrations may cause significant error
 Vibrational temperatures:    212.98   329.23   433.42   753.58  1266.37
          (Kelvin)           1294.31  1576.15  1600.47  1661.17  1772.32
                             1827.10  1897.28  2056.84  2118.15  2162.52
                             2176.48  4261.98  4302.96  4346.34  4412.05
                             5520.95
 
 Zero-point correction=                           0.072809 (Hartree/Particle)
 Thermal correction to Energy=                    0.077672
 Thermal correction to Enthalpy=                  0.078616
 Thermal correction to Gibbs Free Energy=         0.045460
 Sum of electronic and zero-point Energies=           -254.206566
 Sum of electronic and thermal Energies=              -254.201703
 Sum of electronic and thermal Enthalpies=            -254.200759
 Sum of electronic and thermal Free Energies=         -254.233915
 
                     E (Thermal)             CV                S
                      KCal/Mol        Cal/Mol-Kelvin    Cal/Mol-Kelvin
 Total                   48.740             15.163             69.783
 Electronic               0.000              0.000              0.000
 Translational            0.889              2.981             38.389
 Rotational               0.889              2.981             24.189
 Vibrational             46.962              9.201              7.205
 Vibration     1          0.617              1.905              2.697
 Vibration     2          0.652              1.797              1.888
 Vibration     3          0.693              1.671              1.410
 Vibration     4          0.879              1.197              0.601
                       Q            Log10(Q)             Ln(Q)
 Total Bot       0.122974D-20        -20.910187        -48.147484
 Total V=0       0.379919D+13         12.579691         28.965808
 Vib (Bot)       0.141522D-32        -32.849176        -75.638023
 Vib (Bot)    1  0.137054D+01          0.136891          0.315204
 Vib (Bot)    2  0.861167D+00         -0.064913         -0.149467
 Vib (Bot)    3  0.630861D+00         -0.200066         -0.460670
 Vib (Bot)    4  0.307115D+00         -0.512698         -1.180532
 Vib (V=0)       0.437221D+01          0.640701          1.475269
 Vib (V=0)    1  0.195890D+01          0.292011          0.672381
 Vib (V=0)    2  0.149580D+01          0.174872          0.402658
 Vib (V=0)    3  0.130498D+01          0.115602          0.266184
 Vib (V=0)    4  0.108679D+01          0.036145          0.083226
 Electronic      0.100000D+01          0.000000          0.000000
 Translational   0.201397D+08          7.304054         16.818206
 Rotational      0.431455D+05          4.634935         10.672333
 ***** Axes restored to original set *****
 -------------------------------------------------------------------
 Center     Atomic                   Forces (Hartrees/Bohr)
 Number     Number              X              Y              Z
 -------------------------------------------------------------------
      1        6           0.001760902   -0.001499338    0.005666668
      2        1          -0.000008456   -0.000000729   -0.000028487
      3        1           0.000030388   -0.000062710    0.000051647
      4        6          -0.001849118   -0.001750514   -0.005780892
      5        1           0.000047779   -0.000016515   -0.000005749
      6        1           0.000032163   -0.000005341   -0.000008449
      7        9           0.001104142    0.001788902    0.003609869
      8        8          -0.001174122    0.001581199   -0.003467379
      9        1           0.000056322   -0.000034955   -0.000037229
 -------------------------------------------------------------------
 Cartesian Forces:  Max     0.005780892 RMS     0.002025138

 GradGradGradGradGradGradGradGradGradGradGradGradGradGradGradGradGradGrad
 Berny optimization.
 Search for a local minimum.
 Step number   1 out of a maximum of    2
 All quantities printed in internal units (Hartrees-Bohrs-Radians)
 Second derivative matrix not updated -- analytic derivatives used.
 ITU=  0
     Eigenvalues ---    0.00281   0.00341   0.01960   0.02745   0.05342
     Eigenvalues ---    0.06828   0.07911   0.08504   0.10902   0.11963
     Eigenvalues ---    0.15777   0.16395   0.20385   0.29808   0.47560
     Eigenvalues ---    0.67122   0.71964   0.76280   0.79233   0.85843
     Eigenvalues ---    1.06094
 Quadratic step=1.062D+00 exceeds max=3.000D-01 adjusted using Lamda=-8.661D-03.
 Angle between NR and scaled steps=   5.93 degrees.
 Angle between quadratic step and forces=  64.75 degrees.
 Linear search not attempted -- first point.
 B after Tr=     0.002137    0.013092    0.004864
         Rot=    0.999984    0.001263    0.005442   -0.000678 Ang=   0.64 deg.
 Variable       Old X    -DE/DX   Delta X   Delta X   Delta X     New X
                                 (Linear)    (Quad)   (Total)
    X1       -1.30021   0.00176   0.00000   0.01255   0.00844  -1.29177
    Y1        1.13429  -0.00150   0.00000  -0.02322  -0.01078   1.12350
    Z1        0.41709   0.00567   0.00000   0.02693   0.01494   0.43203
    X2       -1.36184  -0.00001   0.00000   0.04945   0.02254  -1.33930
    Y2        1.35601  -0.00000   0.00000  -0.11238  -0.09474   1.26127
    Z2        2.48699  -0.00003   0.00000   0.03545   0.02272   2.50971
    X3       -2.17120   0.00003   0.00000   0.02943   0.03124  -2.13996
    Y3        2.83113  -0.00006   0.00000   0.02979   0.03915   2.87029
    Z3       -0.42305   0.00005   0.00000   0.11144   0.08577  -0.33729
    X4        1.43787  -0.00185   0.00000  -0.01349  -0.00768   1.43018
    Y4        1.03216  -0.00175   0.00000  -0.02207  -0.00821   1.02394
    Z4       -0.43809  -0.00578   0.00000  -0.03129  -0.01346  -0.45155
    X5        2.49002   0.00005   0.00000  -0.02916  -0.03348   2.45654
    Y5        2.62889  -0.00002   0.00000   0.03202   0.04911   2.67800
    Z5        0.36526  -0.00001   0.00000  -0.11389  -0.08900   0.27625
    X6        1.53794   0.00003   0.00000  -0.05024  -0.02188   1.51606
    Y6        1.13730  -0.00001   0.00000  -0.10946  -0.10074   1.03656
    Z6       -2.50752  -0.00001   0.00000  -0.03586  -0.01725  -2.52477
    X7        2.53878   0.00110   0.00000   0.04998   0.04940   2.58817
    Y7       -1.20260   0.00179   0.00000   0.04506   0.06265  -1.13995
    Z7        0.29499   0.00361   0.00000   0.08286   0.11881   0.41379
    X8       -2.49397  -0.00117   0.00000  -0.04876  -0.04034  -2.53431
    Y8       -1.13117   0.00158   0.00000   0.04853   0.05707  -1.07410
    Z8       -0.33555  -0.00347   0.00000  -0.09351  -0.11354  -0.44909
    X9       -4.21814   0.00006   0.00000  -0.00922  -0.00825  -4.22638
    Y9       -1.07921  -0.00003   0.00000  -0.00147   0.00649  -1.07272
    Z9        0.23383  -0.00004   0.00000   0.02945  -0.00897   0.22485
         Item               Value     Threshold  Converged?
 Maximum Force            0.005781     0.000450     NO 
 RMS     Force            0.002025     0.000300     NO 
 Maximum Displacement     0.118806     0.001800     NO 
 RMS     Displacement     0.054910     0.001200     NO 
 Predicted change in Energy=-1.061410D-03
 GradGradGradGradGradGradGradGradGradGradGradGradGradGradGradGradGradGrad


 ----------------------------------------------------------------------

 Electric dipole moment (input orientation):
 (Debye = 10**-18 statcoulomb cm , SI units = C m)
                  (au)            (Debye)         (10**-30 SI)
   Tot        0.107957D+01      0.274399D+01      0.915298D+01
   x         -0.615730D+00     -0.156503D+01     -0.522038D+01
   y          0.875929D+00      0.222639D+01      0.742643D+01
   z          0.138192D+00      0.351248D+00      0.117164D+01

 Dipole polarizability, Alpha (input orientation).
 (esu units = cm**3 , SI units = C**2 m**2 J**-1)
 Alpha(0;0):
               (au)            (10**-24 esu)      (10**-40 SI)
   iso        0.286091D+02      0.423943D+01      0.471701D+01
   aniso      0.483793D+01      0.716908D+00      0.797667D+00
   xx         0.309802D+02      0.459079D+01      0.510794D+01
   yx         0.139640D+01      0.206925D+00      0.230235D+00
   yy         0.283969D+02      0.420798D+01      0.468201D+01
   zx        -0.778111D+00     -0.115304D+00     -0.128293D+00
   zy         0.287782D+00      0.426448D-01      0.474488D-01
   zz         0.264503D+02      0.391954D+01      0.436107D+01

 ----------------------------------------------------------------------

 Dipole orientation:
     6         -0.22203056         -0.39951590          1.71528638
     1          1.00563852         -2.01193321          2.19529375
     1         -0.62488987          0.63137223          3.48127461
     6          1.19679002          1.37510916         -0.03870491
     1          3.05876277          1.81980721          0.75957961
     1          0.13084189          3.13901563         -0.27537465
     9          1.48151994          0.30143539         -2.38597885
     8         -2.43018979         -1.22189642          0.46168097
     1         -3.31108640         -2.36957246          1.56009790

 Electric dipole moment (dipole orientation):
 (Debye = 10**-18 statcoulomb cm , SI units = C m)
                  (au)            (Debye)         (10**-30 SI)
   Tot        0.107957D+01      0.274399D+01      0.915298D+01
   x          0.000000D+00      0.000000D+00      0.000000D+00
   y          0.000000D+00      0.000000D+00      0.000000D+00
   z          0.107957D+01      0.274399D+01      0.915298D+01

 Dipole polarizability, Alpha (dipole orientation).
 (esu units = cm**3 , SI units = C**2 m**2 J**-1)
 Alpha(0;0):
               (au)            (10**-24 esu)      (10**-40 SI)
   iso        0.286091D+02      0.423943D+01      0.471701D+01
   aniso      0.483793D+01      0.716908D+00      0.797667D+00
   xx         0.293902D+02      0.435518D+01      0.484580D+01
   yx         0.254349D+01      0.376906D+00      0.419365D+00
   yy         0.283508D+02      0.420116D+01      0.467442D+01
   zx        -0.380555D+00     -0.563925D-01     -0.627451D-01
   zy        -0.844162D+00     -0.125092D+00     -0.139184D+00
   zz         0.280863D+02      0.416196D+01      0.463081D+01

 ----------------------------------------------------------------------
 Unable to Open any file for archive entry.
 1\1\GINC-COMPUTE-2-4\Freq\RB3LYP\6-31G(2df,p)\C2H5F1O1\JINGDAN2\05-Dec
 -2024\0\\# freq b3lyp/6-31g(2df,p)\\energy: -15.614184499692 gnorm: 0.
 000439253721 xtb: 6.6.1 (8d0f1dd)\\0,1\C,-0.688042,0.600239,0.220713\H
 ,-0.720655,0.717568,1.31606\H,-1.14895,1.49817,-0.223871\C,0.760887,0.
 546193,-0.231826\H,1.317661,1.391151,0.193285\H,0.813844,0.601831,-1.3
 26923\F,1.343463,-0.63639,0.1561\O,-1.31975,-0.598589,-0.177564\H,-2.2
 32143,-0.571095,0.123736\\Version=ES64L-G16RevC.01\State=1-A\HF=-254.2
 793754\RMSD=4.095e-09\RMSF=2.025e-03\ZeroPoint=0.0728092\Thermal=0.077
 672\ETot=-254.2017034\HTot=-254.2007592\GTot=-254.2339153\Dipole=-0.61
 57304,0.8759288,0.1381917\DipoleDeriv=0.3622118,0.2665575,0.0966967,0.
 2007208,0.6554255,0.0526672,0.1364542,0.0458018,0.3966162,-0.0263358,-
 0.023524,0.010687,-0.0544128,-0.0169029,-0.0150101,0.0037358,-0.059542
 3,-0.2138483,-0.0407293,0.0591363,-0.0308426,0.0229485,-0.1795762,0.05
 61087,-0.0583767,0.0856627,-0.013539,0.5292642,-0.2482731,0.0629873,-0
 .1852656,0.7569081,-0.0923226,0.0765265,-0.0852384,0.4456059,-0.050474
 8,-0.0688773,-0.0332321,-0.0487551,-0.1071377,-0.0355872,-0.0610466,-0
 .0750805,0.0039502,-0.0019431,0.0228488,0.0162474,0.0379274,0.0074498,
 -0.0161082,0.0272508,0.0340719,-0.1684138,-0.4403393,0.2392106,-0.0552
 935,0.278563,-0.6572841,0.1285459,-0.0661232,0.1413937,-0.276398,-0.49
 43813,-0.2676003,-0.1302651,-0.2868002,-0.729061,-0.03584,-0.1330912,-
 0.0496074,-0.4655767,0.1627275,0.0205214,0.063015,0.035074,0.2701784,-
 0.0424538,0.0746705,-0.0374615,0.2916035\Polar=30.980179,1.3964006,28.
 3968554,-0.7781108,0.2877816,26.4503383\Quadrupole=1.6275215,-1.114125
 7,-0.5133958,0.9804922,-1.3010602,-0.2448205\PG=C01 [X(C2H5F1O1)]\NIma
 g=0\\0.50350744,-0.02791990,0.52482023,-0.00359687,-0.02238581,0.57126
 927,-0.05276681,0.00393093,0.01002424,0.05529283,0.00264160,-0.0510723
 2,-0.00980576,0.00580070,0.06137351,0.01167066,-0.01243198,-0.28452485
 ,-0.00977018,0.02391946,0.31278855,-0.10298210,0.08395015,-0.04336375,
 0.00251397,-0.00093030,0.00193018,0.10453925,0.08172241,-0.18877289,0.
 07884845,0.00150698,0.00303617,0.00105555,-0.08838569,0.22295597,-0.04
 763487,0.08054865,-0.09725906,-0.01597249,0.02427006,-0.01389809,0.049
 41223,-0.08457203,0.09728832,-0.17666128,-0.01241490,0.04509595,-0.003
 48099,0.00056323,0.00028053,-0.00755949,0.00314628,0.00516948,0.496641
 02,0.01104485,-0.06721219,-0.00498352,-0.00013014,0.00020843,0.0020165
 0,0.02546709,-0.00209717,-0.00781599,0.04455273,0.53962593,0.04643375,
 0.00004184,-0.10313831,0.03661572,-0.00081297,-0.01244072,-0.01674214,
 0.00235471,0.00274918,0.01448940,0.02941547,0.59316172,-0.01019054,-0.
 02476889,-0.01560684,0.00155171,0.00006060,0.00070930,0.00038861,0.001
 13045,-0.00028080,-0.12639860,-0.10074807,-0.05466218,0.12953647,-0.00
 206327,0.00254859,-0.00135671,0.00002478,0.00005143,0.00033712,-0.0014
 5822,0.00006114,0.00046282,-0.09579804,-0.18268769,-0.07423409,0.10417
 180,0.21580449,0.00743408,0.00775744,0.00353218,-0.00058038,0.00059028
 ,0.00076005,-0.00022543,-0.00041291,-0.00004146,-0.05723673,-0.0798145
 4,-0.09829987,0.05894802,0.08072350,0.09569997,-0.00384841,0.00139868,
 0.03579830,-0.00634909,-0.00044337,0.00206543,0.00160103,-0.00011011,-
 0.00062524,-0.05328173,-0.00346036,0.01557884,0.00283304,-0.00186875,-
 0.01771639,0.05551692,-0.00008973,0.00126990,-0.00187425,0.00094854,0.
 00108804,0.00014033,-0.00020633,0.00010312,-0.00035677,-0.00411556,-0.
 04993700,-0.00535431,0.00127202,0.00314817,-0.02283407,-0.00700956,0.0
 6100702,0.00062849,-0.00256488,-0.01162909,0.00208979,-0.00036035,0.00
 102832,0.00072766,-0.00044349,0.00073361,0.01479468,0.00158035,-0.2992
 7529,0.00227910,-0.00122765,-0.01137940,-0.01375764,-0.01164423,0.3265
 0264,-0.02308671,0.04451017,-0.01587426,0.00260441,-0.00095622,0.00005
 808,-0.00888665,-0.00056302,0.00333687,-0.09887113,0.06992346,-0.02591
 386,0.01098119,-0.00447725,0.00639635,0.00045996,0.00843054,-0.0062373
 0,0.11275207,0.01368047,-0.02269837,0.00654907,-0.00056218,0.00076622,
 -0.00128299,0.00274087,0.00169823,-0.00163720,0.07412348,-0.22059918,0
 .05245087,0.01973817,-0.04020358,0.01317366,0.01068055,-0.01737747,0.0
 1386311,-0.11821879,0.29236284,-0.00060720,-0.00487164,0.00745001,-0.0
 0264201,-0.00032141,0.00187242,0.00246182,-0.00010939,0.00102280,-0.02
 458659,0.05149337,-0.08942539,0.00593122,-0.00431333,0.00899569,-0.019
 12428,0.04138936,-0.00757212,0.03888714,-0.08281921,0.07735902,-0.1157
 5084,-0.07415586,-0.02057757,-0.00047136,-0.00850247,-0.00716343,0.008
 47236,0.00037888,0.00586937,-0.02891372,-0.04276778,-0.01325720,-0.007
 78828,0.00116733,0.00247295,0.00258429,0.00076463,-0.00033747,0.002915
 63,-0.00134766,-0.00038243,0.60359635,-0.03626756,-0.19273685,-0.05664
 207,-0.01188884,-0.01631027,-0.01291265,-0.02110553,-0.03785722,-0.011
 81334,-0.00793668,-0.00975992,-0.00106006,0.00094623,0.00090565,0.0003
 4305,0.00048189,0.00071774,0.00080428,-0.00000214,0.00524074,-0.000466
 15,0.08128031,0.28367399,0.00101830,-0.04283374,-0.08698695,-0.0188080
 6,-0.03753199,-0.00629306,0.00510938,0.00422107,0.00916503,0.00299108,
 0.00969298,0.00719994,0.00306787,-0.00028710,0.00014749,-0.00202271,0.
 00063948,0.00146745,-0.00053305,-0.00046969,0.00039038,-0.13460878,0.0
 9677025,0.13710729,-0.01822076,0.00546962,0.00810079,0.00110534,0.0017
 6623,0.00021943,0.00191301,0.00117382,0.00072544,-0.00147408,-0.003881
 80,-0.00254232,-0.00091359,0.00030162,0.00050753,0.00048400,0.00000546
 ,-0.00018730,0.00113122,-0.00083490,0.00006233,-0.46464441,-0.00550769
 ,0.14378595,0.48061928,-0.04274887,-0.00614611,0.01165059,0.00036923,0
 .00085879,-0.00084133,-0.00007204,0.00087265,0.00091380,-0.00212053,-0
 .00754121,-0.00280145,-0.00180232,0.00037179,0.00047357,0.00033103,-0.
 00001951,-0.00000714,0.00135325,0.00081057,0.00001840,0.04318262,-0.03
 387387,-0.03020125,0.00150764,0.04466689,-0.01534635,-0.00325988,0.001
 28681,-0.00095663,0.00005267,0.00070738,0.00069004,-0.00094197,0.00023
 966,-0.00099780,-0.00158463,-0.00053126,-0.00038569,-0.00010455,0.0005
 8535,-0.00019631,-0.00010554,0.00012389,-0.00011998,0.00017238,-0.0000
 9281,0.16798457,-0.01502330,-0.06219758,-0.15067185,0.02079481,0.05987
 856\\-0.00176090,0.00149934,-0.00566667,0.00000846,0.00000073,0.000028
 49,-0.00003039,0.00006271,-0.00005165,0.00184912,0.00175051,0.00578089
 ,-0.00004778,0.00001651,0.00000575,-0.00003216,0.00000534,0.00000845,-
 0.00110414,-0.00178890,-0.00360987,0.00117412,-0.00158120,0.00346738,-
 0.00005632,0.00003496,0.00003723\\\@
 The archive entry for this job was punched.


 THERE IS NO CURE FOR BIRTH AND DEATH SAVE TO ENJOY THE INTERVAL.

                               -- GEORGE SANTAYANA
 Job cpu time:       0 days  0 hours  6 minutes 53.7 seconds.
 Elapsed time:       0 days  0 hours  0 minutes 53.1 seconds.
 File lengths (MBytes):  RWF=     21 Int=      0 D2E=      0 Chk=      2 Scr=      1
 Normal termination of Gaussian 16 at Thu Dec  5 18:22:45 2024.
