 Entering Gaussian System, Link 0=g16
 Input=rotation_std36.gjf
 Output=rotation_std36.log
 Initial command:
 /share/apps/gaussian/g16/l1.exe "/scratch/jingdan2/247465/Gau-88230.inp" -scrdir="/scratch/jingdan2/247465/"
 Entering Link 1 = /share/apps/gaussian/g16/l1.exe PID=     88235.
  
 Copyright (c) 1988-2019, Gaussian, Inc.  All Rights Reserved.
  
 This is part of the Gaussian(R) 16 program.  It is based on
 the Gaussian(R) 09 system (copyright 2009, Gaussian, Inc.),
 the Gaussian(R) 03 system (copyright 2003, Gaussian, Inc.),
 the Gaussian(R) 98 system (copyright 1998, Gaussian, Inc.),
 the Gaussian(R) 94 system (copyright 1995, Gaussian, Inc.),
 the Gaussian 92(TM) system (copyright 1992, Gaussian, Inc.),
 the Gaussian 90(TM) system (copyright 1990, Gaussian, Inc.),
 the Gaussian 88(TM) system (copyright 1988, Gaussian, Inc.),
 the Gaussian 86(TM) system (copyright 1986, Carnegie Mellon
 University), and the Gaussian 82(TM) system (copyright 1983,
 Carnegie Mellon University). Gaussian is a federally registered
 trademark of Gaussian, Inc.
  
 This software contains proprietary and confidential information,
 including trade secrets, belonging to Gaussian, Inc.
  
 This software is provided under written license and may be
 used, copied, transmitted, or stored only in accord with that
 written license.
  
 The following legend is applicable only to US Government
 contracts under FAR:
  
                    RESTRICTED RIGHTS LEGEND
  
 Use, reproduction and disclosure by the US Government is
 subject to restrictions as set forth in subparagraphs (a)
 and (c) of the Commercial Computer Software - Restricted
 Rights clause in FAR 52.227-19.
  
 Gaussian, Inc.
 340 Quinnipiac St., Bldg. 40, Wallingford CT 06492
  
  
 ---------------------------------------------------------------
 Warning -- This program may not be used in any manner that
 competes with the business of Gaussian, Inc. or will provide
 assistance to any competitor of Gaussian, Inc.  The licensee
 of this program is prohibited from giving any competitor of
 Gaussian, Inc. access to this program.  By using this program,
 the user acknowledges that Gaussian, Inc. is engaged in the
 business of creating and licensing software in the field of
 computational chemistry and represents and warrants to the
 licensee that it is not a competitor of Gaussian, Inc. and that
 it will not use this program in any manner prohibited above.
 ---------------------------------------------------------------
  

 Cite this work as:
 Gaussian 16, Revision C.01,
 M. J. Frisch, G. W. Trucks, H. B. Schlegel, G. E. Scuseria, 
 M. A. Robb, J. R. Cheeseman, G. Scalmani, V. Barone, 
 G. A. Petersson, H. Nakatsuji, X. Li, M. Caricato, A. V. Marenich, 
 J. Bloino, B. G. Janesko, R. Gomperts, B. Mennucci, H. P. Hratchian, 
 J. V. Ortiz, A. F. Izmaylov, J. L. Sonnenberg, D. Williams-Young, 
 F. Ding, F. Lipparini, F. Egidi, J. Goings, B. Peng, A. Petrone, 
 T. Henderson, D. Ranasinghe, V. G. Zakrzewski, J. Gao, N. Rega, 
 G. Zheng, W. Liang, M. Hada, M. Ehara, K. Toyota, R. Fukuda, 
 J. Hasegawa, M. Ishida, T. Nakajima, Y. Honda, O. Kitao, H. Nakai, 
 T. Vreven, K. Throssell, J. A. Montgomery, Jr., J. E. Peralta, 
 F. Ogliaro, M. J. Bearpark, J. J. Heyd, E. N. Brothers, K. N. Kudin, 
 V. N. Staroverov, T. A. Keith, R. Kobayashi, J. Normand, 
 K. Raghavachari, A. P. Rendell, J. C. Burant, S. S. Iyengar, 
 J. Tomasi, M. Cossi, J. M. Millam, M. Klene, C. Adamo, R. Cammi, 
 J. W. Ochterski, R. L. Martin, K. Morokuma, O. Farkas, 
 J. B. Foresman, and D. J. Fox, Gaussian, Inc., Wallingford CT, 2019.
 
 ******************************************
 Gaussian 16:  ES64L-G16RevC.01  3-Jul-2019
                 5-Dec-2024 
 ******************************************
 %nprocshared=8
 Will use up to    8 processors via shared memory.
 %mem=8GB
 -------------------------
 # freq b3lyp/6-31g(2df,p)
 -------------------------
 1/10=4,30=1,38=1/1,3;
 2/12=2,17=6,18=5,40=1/2;
 3/5=1,6=6,7=104,11=2,25=1,30=1,71=2,74=-5,140=1/1,2,3;
 4//1;
 5/5=2,38=5,98=1/2;
 8/6=4,10=90,11=11/1;
 11/6=1,8=1,9=11,15=111,16=1/1,2,10;
 10/6=1/2;
 6/7=2,8=2,9=2,10=2,28=1/1;
 7/8=1,10=1,25=1/1,2,3,16;
 1/10=4,30=1/3;
 99//99;
 -------------------------------------------------------------------
 energy: -15.614184499692 gnorm: 0.000439253721 xtb: 6.6.1 (8d0f1dd)
 -------------------------------------------------------------------
 Symbolic Z-matrix:
 Charge =  0 Multiplicity = 1
 C                    -0.55486   0.49895   0.05109 
 H                    -0.53147   1.10348   0.96997 
 H                    -0.41301   1.18022  -0.80205 
 C                     0.5956   -0.49704   0.05954 
 H                     0.48878  -1.18471  -0.78791 
 H                     0.6066   -1.08177   0.98651 
 F                     1.78634   0.18718  -0.05869 
 O                    -1.74727  -0.25707  -0.06368 
 H                    -2.49419   0.34327   0.00733 
 

 GradGradGradGradGradGradGradGradGradGradGradGradGradGradGradGradGradGrad
 Berny optimization.
 Initialization pass.
 Trust Radius=3.00D-01 FncErr=1.00D-07 GrdErr=1.00D-07 EigMax=2.50D+02 EigMin=1.00D-04
 Number of steps in this run=      2 maximum allowed number of steps=      2.
 GradGradGradGradGradGradGradGradGradGradGradGradGradGradGradGradGradGrad

                          Input orientation:                          
 ---------------------------------------------------------------------
 Center     Atomic      Atomic             Coordinates (Angstroms)
 Number     Number       Type             X           Y           Z
 ---------------------------------------------------------------------
      1          6           0       -0.554860    0.498945    0.051088
      2          1           0       -0.531474    1.103476    0.969969
      3          1           0       -0.413012    1.180223   -0.802052
      4          6           0        0.595599   -0.497036    0.059535
      5          1           0        0.488779   -1.184707   -0.787907
      6          1           0        0.606600   -1.081772    0.986506
      7          9           0        1.786338    0.187179   -0.058687
      8          8           0       -1.747271   -0.257069   -0.063676
      9          1           0       -2.494192    0.343272    0.007329
 ---------------------------------------------------------------------
                    Distance matrix (angstroms):
                    1          2          3          4          5
     1  C    0.000000
     2  H    1.100158   0.000000
     3  H    1.100958   1.777634   0.000000
     4  C    1.521711   2.158894   2.138417   0.000000
     5  H    2.151227   3.060527   2.531071   1.096567   0.000000
     6  H    2.173169   2.463898   3.058622   1.096044   1.781297
     7  F    2.364415   2.696291   2.525048   1.378400   2.024226
     8  O    1.416535   2.097062   2.095532   2.358348   2.526844
     9  H    1.946062   2.314487   2.384721   3.202445   3.444595
                    6          7          8          9
     6  H    0.000000
     7  F    2.023474   0.000000
     8  O    2.706238   3.561429   0.000000
     9  H    3.550275   4.283884   0.960907   0.000000
 Stoichiometry    C2H5FO
 Framework group  C1[X(C2H5FO)]
 Deg. of freedom    21
 Full point group                 C1      NOp   1
 Largest Abelian subgroup         C1      NOp   1
 Largest concise Abelian subgroup C1      NOp   1
                         Standard orientation:                         
 ---------------------------------------------------------------------
 Center     Atomic      Atomic             Coordinates (Angstroms)
 Number     Number       Type             X           Y           Z
 ---------------------------------------------------------------------
      1          6           0       -0.554860    0.498945    0.051088
      2          1           0       -0.531474    1.103476    0.969969
      3          1           0       -0.413012    1.180223   -0.802052
      4          6           0        0.595599   -0.497036    0.059535
      5          1           0        0.488779   -1.184707   -0.787907
      6          1           0        0.606600   -1.081772    0.986506
      7          9           0        1.786338    0.187179   -0.058687
      8          8           0       -1.747271   -0.257069   -0.063676
      9          1           0       -2.494192    0.343272    0.007329
 ---------------------------------------------------------------------
 Rotational constants (GHZ):          30.9796378           3.9484832           3.6755376
 Standard basis: 6-31G(2df,p) (6D, 7F)
 There are   149 symmetry adapted cartesian basis functions of A   symmetry.
 There are   137 symmetry adapted basis functions of A   symmetry.
   137 basis functions,   211 primitive gaussians,   149 cartesian basis functions
    17 alpha electrons       17 beta electrons
       nuclear repulsion energy       128.0861319719 Hartrees.
 NAtoms=    9 NActive=    9 NUniq=    9 SFac= 1.00D+00 NAtFMM=   60 NAOKFM=F Big=F
 Integral buffers will be    131072 words long.
 Raffenetti 2 integral format.
 Two-electron integral symmetry is turned on.
 One-electron integrals computed using PRISM.
 NBasis=   137 RedAO= T EigKep=  1.25D-03  NBF=   137
 NBsUse=   137 1.00D-06 EigRej= -1.00D+00 NBFU=   137
 ExpMin= 1.61D-01 ExpMax= 7.00D+03 ExpMxC= 1.05D+03 IAcc=3 IRadAn=         5 AccDes= 0.00D+00
 Harris functional with IExCor=  402 and IRadAn=       5 diagonalized for initial guess.
 HarFok:  IExCor=  402 AccDes= 0.00D+00 IRadAn=         5 IDoV= 1 UseB2=F ITyADJ=14
 ICtDFT=  3500011 ScaDFX=  1.000000  1.000000  1.000000  1.000000
 FoFCou: FMM=F IPFlag=           0 FMFlag=      100000 FMFlg1=           0
         NFxFlg=           0 DoJE=T BraDBF=F KetDBF=T FulRan=T
         wScrn=  0.000000 ICntrl=       500 IOpCl=  0 I1Cent=   200000004 NGrid=           0
         NMat0=    1 NMatS0=      1 NMatT0=    0 NMatD0=    1 NMtDS0=    0 NMtDT0=    0
 Petite list used in FoFCou.
 Keep R1 ints in memory in canonical form, NReq=52495207.
 Requested convergence on RMS density matrix=1.00D-08 within 128 cycles.
 Requested convergence on MAX density matrix=1.00D-06.
 Requested convergence on             energy=1.00D-06.
 No special actions if energy rises.
 Integral accuracy reduced to 1.0D-05 until final iterations.
 Initial convergence to 1.0D-05 achieved.  Increase integral accuracy.
 SCF Done:  E(RB3LYP) =  -254.280637303     A.U. after   12 cycles
            NFock= 12  Conv=0.25D-08     -V/T= 2.0064
 DoSCS=F DFT=T ScalE2(SS,OS)=  1.000000  1.000000
 Range of M.O.s used for correlation:     1   137
 NBasis=   137 NAE=    17 NBE=    17 NFC=     0 NFV=     0
 NROrb=    137 NOA=    17 NOB=    17 NVA=   120 NVB=   120

 **** Warning!!: The largest alpha MO coefficient is  0.18600353D+02

 Symmetrizing basis deriv contribution to polar:
 IMax=3 JMax=2 DiffMx= 0.00D+00
 G2DrvN: will do    10 centers at a time, making    1 passes.
 Calling FoFCou, ICntrl=  3107 FMM=F I1Cent=   0 AccDes= 0.00D+00.
 End of G2Drv F.D. properties file   721 does not exist.
 End of G2Drv F.D. properties file   722 does not exist.
 End of G2Drv F.D. properties file   788 does not exist.
          IDoAtm=111111111
          Differentiating once with respect to electric field.
                with respect to dipole field.
          Differentiating once with respect to nuclear coordinates.
 Keep R1 ints in memory in canonical form, NReq=52475930.
          There are    30 degrees of freedom in the 1st order CPHF.  IDoFFX=6 NUNeed=     3.
     27 vectors produced by pass  0 Test12= 6.80D-15 3.33D-09 XBig12= 1.51D+01 1.56D+00.
 AX will form    27 AO Fock derivatives at one time.
     27 vectors produced by pass  1 Test12= 6.80D-15 3.33D-09 XBig12= 1.22D+00 2.01D-01.
     27 vectors produced by pass  2 Test12= 6.80D-15 3.33D-09 XBig12= 2.00D-02 2.91D-02.
     27 vectors produced by pass  3 Test12= 6.80D-15 3.33D-09 XBig12= 6.82D-05 1.48D-03.
     27 vectors produced by pass  4 Test12= 6.80D-15 3.33D-09 XBig12= 1.04D-07 5.30D-05.
     16 vectors produced by pass  5 Test12= 6.80D-15 3.33D-09 XBig12= 7.82D-11 1.34D-06.
      3 vectors produced by pass  6 Test12= 6.80D-15 3.33D-09 XBig12= 8.48D-14 4.91D-08.
 InvSVY:  IOpt=1 It=  1 EMax= 3.11D-15
 Solved reduced A of dimension   154 with    30 vectors.
 Isotropic polarizability for W=    0.000000       28.30 Bohr**3.
 End of Minotr F.D. properties file   721 does not exist.
 End of Minotr F.D. properties file   722 does not exist.
 End of Minotr F.D. properties file   788 does not exist.

 **********************************************************************

            Population analysis using the SCF Density.

 **********************************************************************

 Orbital symmetries:
       Occupied  (A) (A) (A) (A) (A) (A) (A) (A) (A) (A) (A) (A)
                 (A) (A) (A) (A) (A)
       Virtual   (A) (A) (A) (A) (A) (A) (A) (A) (A) (A) (A) (A)
                 (A) (A) (A) (A) (A) (A) (A) (A) (A) (A) (A) (A)
                 (A) (A) (A) (A) (A) (A) (A) (A) (A) (A) (A) (A)
                 (A) (A) (A) (A) (A) (A) (A) (A) (A) (A) (A) (A)
                 (A) (A) (A) (A) (A) (A) (A) (A) (A) (A) (A) (A)
                 (A) (A) (A) (A) (A) (A) (A) (A) (A) (A) (A) (A)
                 (A) (A) (A) (A) (A) (A) (A) (A) (A) (A) (A) (A)
                 (A) (A) (A) (A) (A) (A) (A) (A) (A) (A) (A) (A)
                 (A) (A) (A) (A) (A) (A) (A) (A) (A) (A) (A) (A)
                 (A) (A) (A) (A) (A) (A) (A) (A) (A) (A) (A) (A)
 The electronic state is 1-A.
 Alpha  occ. eigenvalues --  -24.66776 -19.14486 -10.25133 -10.23454  -1.18250
 Alpha  occ. eigenvalues --   -1.02626  -0.74685  -0.62099  -0.52921  -0.50029
 Alpha  occ. eigenvalues --   -0.46426  -0.45438  -0.42265  -0.36530  -0.32963
 Alpha  occ. eigenvalues --   -0.32234  -0.27756
 Alpha virt. eigenvalues --    0.06169   0.10787   0.14477   0.14907   0.15683
 Alpha virt. eigenvalues --    0.20028   0.21716   0.24884   0.42948   0.46800
 Alpha virt. eigenvalues --    0.49634   0.51672   0.53600   0.62849   0.65546
 Alpha virt. eigenvalues --    0.66481   0.69428   0.71828   0.77805   0.78834
 Alpha virt. eigenvalues --    0.79666   0.85512   0.88159   0.88894   0.91558
 Alpha virt. eigenvalues --    0.93448   0.95774   0.99610   1.04616   1.06734
 Alpha virt. eigenvalues --    1.09143   1.11086   1.24576   1.26933   1.28746
 Alpha virt. eigenvalues --    1.37889   1.40805   1.41913   1.51119   1.55917
 Alpha virt. eigenvalues --    1.60081   1.62783   1.64912   1.71806   1.74851
 Alpha virt. eigenvalues --    1.90802   1.93731   2.03183   2.14996   2.18836
 Alpha virt. eigenvalues --    2.24771   2.41508   2.47764   2.51422   2.53712
 Alpha virt. eigenvalues --    2.58998   2.71917   2.72894   2.79893   2.84716
 Alpha virt. eigenvalues --    2.87893   2.88576   2.91275   2.95925   3.05782
 Alpha virt. eigenvalues --    3.16110   3.28221   3.31142   3.36786   3.39596
 Alpha virt. eigenvalues --    3.40853   3.46444   3.56488   3.64050   3.72521
 Alpha virt. eigenvalues --    3.85101   3.87412   3.91655   4.12260   4.17582
 Alpha virt. eigenvalues --    4.19729   4.29064   4.38858   4.41165   4.41947
 Alpha virt. eigenvalues --    4.43325   4.49806   4.50886   4.52908   4.55068
 Alpha virt. eigenvalues --    4.61092   4.65216   4.66918   4.70677   4.72586
 Alpha virt. eigenvalues --    4.77217   4.80959   4.85929   4.96578   5.22725
 Alpha virt. eigenvalues --    5.31074   5.39317   5.46298   5.49183   5.80328
 Alpha virt. eigenvalues --    5.91712   5.97143   6.07329   6.66755   6.67730
 Alpha virt. eigenvalues --    6.79232   6.80061   7.02443   7.25148   7.30633
 Alpha virt. eigenvalues --    7.35112   9.54495  11.07183  11.83467  13.14386
          Condensed to atoms (all electrons):
               1          2          3          4          5          6
     1  C    4.893541   0.359053   0.357623   0.353862  -0.043694  -0.039641
     2  H    0.359053   0.663172  -0.059142  -0.028558   0.007121  -0.009847
     3  H    0.357623  -0.059142   0.663565  -0.036139  -0.007880   0.007137
     4  C    0.353862  -0.028558  -0.036139   4.689662   0.354446   0.354543
     5  H   -0.043694   0.007121  -0.007880   0.354446   0.644296  -0.053522
     6  H   -0.039641  -0.009847   0.007137   0.354543  -0.053522   0.648335
     7  F   -0.033593   0.002332   0.004654   0.375225  -0.020958  -0.020965
     8  O    0.296997  -0.027777  -0.027304  -0.025391   0.007276   0.005001
     9  H   -0.044322  -0.004414  -0.002664   0.005427  -0.000172  -0.000262
               7          8          9
     1  C   -0.033593   0.296997  -0.044322
     2  H    0.002332  -0.027777  -0.004414
     3  H    0.004654  -0.027304  -0.002664
     4  C    0.375225  -0.025391   0.005427
     5  H   -0.020958   0.007276  -0.000172
     6  H   -0.020965   0.005001  -0.000262
     7  F    8.847881   0.000608  -0.000045
     8  O    0.000608   7.882909   0.304696
     9  H   -0.000045   0.304696   0.447220
 Mulliken charges:
               1
     1  C   -0.099826
     2  H    0.098060
     3  H    0.100152
     4  C   -0.043077
     5  H    0.113086
     6  H    0.109222
     7  F   -0.155140
     8  O   -0.417014
     9  H    0.294536
 Sum of Mulliken charges =  -0.00000
 Mulliken charges with hydrogens summed into heavy atoms:
               1
     1  C    0.098386
     4  C    0.179232
     7  F   -0.155140
     8  O   -0.122478
 APT charges:
               1
     1  C    0.462517
     2  H   -0.079505
     3  H   -0.078364
     4  C    0.569547
     5  H   -0.046272
     6  H   -0.051614
     7  F   -0.459725
     8  O   -0.560957
     9  H    0.244374
 Sum of APT charges =   0.00000
 APT charges with hydrogens summed into heavy atoms:
               1
     1  C    0.304647
     4  C    0.471661
     7  F   -0.459725
     8  O   -0.316583
 Electronic spatial extent (au):  <R**2>=            326.3155
 Charge=             -0.0000 electrons
 Dipole moment (field-independent basis, Debye):
    X=             -1.5694    Y=              0.7682    Z=              0.3279  Tot=              1.7778
 Quadrupole moment (field-independent basis, Debye-Ang):
   XX=            -23.9644   YY=            -22.9421   ZZ=            -23.1135
   XY=             -3.9867   XZ=             -0.1959   YZ=             -0.0084
 Traceless Quadrupole moment (field-independent basis, Debye-Ang):
   XX=             -0.6244   YY=              0.3979   ZZ=              0.2265
   XY=             -3.9867   XZ=             -0.1959   YZ=             -0.0084
 Octapole moment (field-independent basis, Debye-Ang**2):
  XXX=            -13.5494  YYY=              0.5106  ZZZ=             -0.3574  XYY=              2.1344
  XXY=              5.9641  XXZ=              0.7393  XZZ=              2.7493  YZZ=              0.1558
  YYZ=             -0.2853  XYZ=             -0.0552
 Hexadecapole moment (field-independent basis, Debye-Ang**3):
 XXXX=           -216.5858 YYYY=            -62.2932 ZZZZ=            -33.5413 XXXY=            -12.2682
 XXXZ=             -1.3586 YYYX=              2.5963 YYYZ=              0.0279 ZZZX=             -0.5460
 ZZZY=             -0.1078 XXYY=            -51.4771 XXZZ=            -48.7307 YYZZ=            -14.6199
 XXYZ=             -0.0245 YYXZ=             -0.1573 ZZXY=              0.2414
 N-N= 1.280861319719D+02 E-N=-8.558471566231D+02  KE= 2.526718030718D+02
  Exact polarizability:      31.216      -0.629      27.881      -0.013       0.098      25.812
 Approx polarizability:      39.614       1.371      37.881      -0.173       0.245      35.062
 Calling FoFJK, ICntrl=    100127 FMM=F ISym2X=0 I1Cent= 0 IOpClX= 0 NMat=1 NMatS=1 NMatT=0.
 Full mass-weighted force constant matrix:
 Low frequencies ---   -5.6292   -0.0011   -0.0006    0.0008    3.6901    3.7655
 Low frequencies ---  117.3058  219.3311  287.3685
 Diagonal vibrational polarizability:
        7.4666648       3.2232636      90.3176909
 Harmonic frequencies (cm**-1), IR intensities (KM/Mole), Raman scattering
 activities (A**4/AMU), depolarization ratios for plane and unpolarized
 incident light, reduced masses (AMU), force constants (mDyne/A),
 and normal coordinates:
                      1                      2                      3
                      A                      A                      A
 Frequencies --    117.3050               219.3275               287.3101
 Red. masses --      3.3740                 1.0865                 3.6912
 Frc consts  --      0.0274                 0.0308                 0.1795
 IR Inten    --     16.2120               104.2658                13.7680
  Atom  AN      X      Y      Z        X      Y      Z        X      Y      Z
     1   6     0.01  -0.00  -0.21    -0.01   0.02  -0.05    -0.11   0.23   0.03
     2   1     0.25   0.16  -0.33    -0.02   0.03  -0.06    -0.26   0.18   0.06
     3   1    -0.18  -0.15  -0.37    -0.02   0.02  -0.05    -0.30   0.28   0.05
     4   6    -0.01  -0.01  -0.23    -0.01   0.02   0.00    -0.11   0.22  -0.04
     5   1     0.19   0.16  -0.40     0.01  -0.01   0.03    -0.30   0.29  -0.07
     6   1    -0.23  -0.21  -0.35    -0.05   0.05   0.02    -0.28   0.15  -0.08
     7   9     0.02   0.01   0.18     0.01  -0.01   0.02     0.10  -0.17   0.00
     8   8    -0.02  -0.01   0.21     0.01  -0.00  -0.05     0.12  -0.16   0.02
     9   1     0.00   0.06  -0.02    -0.02  -0.16   0.98    -0.09  -0.40  -0.27
                      4                      5                      6
                      A                      A                      A
 Frequencies --    470.1203               821.4922              1019.8704
 Red. masses --      7.7893                 1.0946                 2.5752
 Frc consts  --      1.0143                 0.4352                 1.5782
 IR Inten    --      1.3050                 0.9332                39.7313
  Atom  AN      X      Y      Z        X      Y      Z        X      Y      Z
     1   6    -0.23  -0.10   0.01     0.00  -0.00  -0.06     0.14  -0.21  -0.00
     2   1    -0.31  -0.14   0.03     0.20  -0.41   0.22     0.06  -0.21  -0.00
     3   1    -0.34  -0.03   0.05    -0.21   0.38   0.22     0.09  -0.18   0.01
     4   6     0.20   0.12   0.00    -0.00   0.00  -0.06    -0.08   0.26   0.00
     5   1     0.29   0.06   0.05     0.21  -0.38   0.23    -0.23   0.29  -0.01
     6   1     0.26   0.16   0.03    -0.20   0.41   0.21    -0.21   0.23  -0.02
     7   9     0.39  -0.04  -0.01    -0.01  -0.00   0.01    -0.03  -0.04   0.00
     8   8    -0.42   0.02  -0.01     0.01   0.00   0.02    -0.02  -0.04  -0.01
     9   1    -0.23   0.27  -0.01     0.01   0.01  -0.04     0.46   0.56   0.08
                      7                      8                      9
                      A                      A                      A
 Frequencies --   1091.4961              1098.5476              1172.3294
 Red. masses --      6.4216                 5.2236                 1.5377
 Frc consts  --      4.5076                 3.7142                 1.2452
 IR Inten    --     71.1908                95.2584                 0.5510
  Atom  AN      X      Y      Z        X      Y      Z        X      Y      Z
     1   6     0.42   0.30   0.02    -0.02   0.05  -0.01    -0.00  -0.02   0.16
     2   1     0.51   0.15   0.09    -0.24   0.11  -0.04     0.41   0.40  -0.13
     3   1     0.36   0.26   0.03    -0.27   0.14   0.01    -0.24  -0.42  -0.20
     4   6     0.02  -0.04   0.00     0.43   0.17  -0.02    -0.01   0.02  -0.13
     5   1    -0.15   0.00   0.00     0.46   0.14  -0.03    -0.09  -0.30   0.15
     6   1    -0.13   0.03   0.04     0.52   0.02  -0.09     0.15   0.39   0.10
     7   9    -0.03   0.01   0.00    -0.27  -0.17   0.03    -0.00  -0.01   0.03
     8   8    -0.32  -0.24  -0.03    -0.02   0.01  -0.00     0.00   0.01  -0.05
     9   1    -0.18  -0.02  -0.02     0.02   0.06   0.01    -0.09  -0.11  -0.01
                     10                     11                     12
                      A                      A                      A
 Frequencies --   1233.1880              1249.6000              1297.4224
 Red. masses --      1.1581                 1.1735                 1.1010
 Frc consts  --      1.0377                 1.0796                 1.0919
 IR Inten    --      2.9198                38.0120                 1.4592
  Atom  AN      X      Y      Z        X      Y      Z        X      Y      Z
     1   6     0.00   0.01  -0.03    -0.01  -0.06  -0.03     0.00   0.01   0.07
     2   1    -0.47  -0.05   0.01     0.30  -0.18   0.04    -0.47   0.18  -0.05
     3   1     0.41   0.07   0.07     0.55  -0.07   0.05     0.44  -0.14   0.01
     4   6    -0.00  -0.01  -0.09    -0.01   0.09   0.01     0.00  -0.00  -0.06
     5   1    -0.48  -0.21   0.12     0.10   0.10  -0.02     0.51  -0.13  -0.00
     6   1     0.49   0.22   0.04     0.07   0.06  -0.02    -0.47   0.14   0.05
     7   9     0.00   0.00   0.04    -0.01  -0.02  -0.00    -0.00  -0.00  -0.01
     8   8    -0.00  -0.01   0.03    -0.01   0.04   0.02    -0.00  -0.01   0.01
     9   1     0.05   0.05   0.02    -0.48  -0.54  -0.08     0.04   0.05   0.02
                     13                     14                     15
                      A                      A                      A
 Frequencies --   1397.3858              1475.8930              1519.0891
 Red. masses --      1.2821                 1.5359                 1.0818
 Frc consts  --      1.4750                 1.9711                 1.4708
 IR Inten    --      7.7642                 4.1130                 0.0593
  Atom  AN      X      Y      Z        X      Y      Z        X      Y      Z
     1   6    -0.06   0.06  -0.00     0.17  -0.06   0.00     0.02   0.04   0.00
     2   1     0.26   0.00   0.03    -0.51   0.09  -0.10    -0.12  -0.27   0.19
     3   1     0.21   0.01   0.00    -0.50   0.11   0.04    -0.11  -0.25  -0.22
     4   6    -0.12   0.03   0.01    -0.11   0.03   0.00    -0.02  -0.07   0.01
     5   1     0.59  -0.08   0.01     0.33  -0.10   0.06     0.12   0.45  -0.40
     6   1     0.60  -0.10  -0.08     0.32  -0.10  -0.09     0.15   0.49   0.33
     7   9     0.00  -0.02   0.00     0.00  -0.01   0.00    -0.00  -0.01   0.00
     8   8     0.01  -0.05  -0.01    -0.01   0.05   0.01     0.00   0.01   0.00
     9   1     0.25   0.27   0.04    -0.28  -0.30  -0.05    -0.01  -0.01  -0.00
                     16                     17                     18
                      A                      A                      A
 Frequencies --   1533.3881              2981.3528              3014.6596
 Red. masses --      1.0869                 1.0549                 1.1062
 Frc consts  --      1.5057                 5.5245                 5.9233
 IR Inten    --      3.8388                48.5170                37.3596
  Atom  AN      X      Y      Z        X      Y      Z        X      Y      Z
     1   6    -0.01  -0.07  -0.01     0.00   0.06  -0.01     0.01  -0.00  -0.09
     2   1     0.12   0.49  -0.34    -0.01  -0.32  -0.54     0.00   0.42   0.64
     3   1     0.07   0.47   0.40    -0.09  -0.46   0.62    -0.06  -0.38   0.47
     4   6    -0.01  -0.04   0.01     0.00  -0.00  -0.00     0.00  -0.00   0.02
     5   1     0.02   0.27  -0.23     0.00   0.02   0.03    -0.01  -0.08  -0.09
     6   1     0.06   0.28   0.19    -0.00   0.02  -0.04    -0.00   0.09  -0.14
     7   9     0.00  -0.00  -0.00    -0.00  -0.00   0.00     0.00  -0.00   0.00
     8   8    -0.00  -0.01  -0.00     0.00   0.00   0.00    -0.00   0.00   0.00
     9   1     0.01   0.01   0.00     0.00   0.01   0.00    -0.00  -0.00   0.00
                     19                     20                     21
                      A                      A                      A
 Frequencies --   3033.4227              3085.0436              3842.3011
 Red. masses --      1.0553                 1.1105                 1.0666
 Frc consts  --      5.7212                 6.2271                 9.2778
 IR Inten    --     40.0694                55.4694                28.8289
  Atom  AN      X      Y      Z        X      Y      Z        X      Y      Z
     1   6     0.00   0.00  -0.00     0.00  -0.00  -0.02     0.00   0.00   0.00
     2   1    -0.00  -0.01  -0.02    -0.00   0.08   0.13     0.00  -0.00  -0.00
     3   1    -0.01  -0.03   0.04    -0.01  -0.08   0.10     0.00   0.00   0.00
     4   6     0.00   0.07  -0.00    -0.01  -0.00  -0.09     0.00  -0.00   0.00
     5   1    -0.07  -0.44  -0.58     0.05   0.42   0.51     0.00  -0.00  -0.00
     6   1     0.01  -0.34   0.58     0.02  -0.38   0.61     0.00   0.00  -0.00
     7   9     0.00   0.00  -0.00     0.00   0.00   0.00     0.00   0.00  -0.00
     8   8    -0.00  -0.00  -0.00    -0.00   0.00   0.00    -0.05   0.04   0.00
     9   1    -0.00  -0.00  -0.00     0.00  -0.00   0.00     0.78  -0.61  -0.07

 -------------------
 - Thermochemistry -
 -------------------
 Temperature   298.150 Kelvin.  Pressure   1.00000 Atm.
 Atom     1 has atomic number  6 and mass  12.00000
 Atom     2 has atomic number  1 and mass   1.00783
 Atom     3 has atomic number  1 and mass   1.00783
 Atom     4 has atomic number  6 and mass  12.00000
 Atom     5 has atomic number  1 and mass   1.00783
 Atom     6 has atomic number  1 and mass   1.00783
 Atom     7 has atomic number  9 and mass  18.99840
 Atom     8 has atomic number  8 and mass  15.99491
 Atom     9 has atomic number  1 and mass   1.00783
 Molecular mass:    64.03244 amu.
 Principal axes and moments of inertia in atomic units:
                           1         2         3
     Eigenvalues --    58.25572 457.07202 491.01422
           X            0.99951  -0.03120   0.00072
           Y            0.03120   0.99951   0.00023
           Z           -0.00073  -0.00021   1.00000
 This molecule is an asymmetric top.
 Rotational symmetry number  1.
 Rotational temperatures (Kelvin)      1.48679     0.18950     0.17640
 Rotational constants (GHZ):          30.97964     3.94848     3.67554
 Zero-point vibrational energy     191166.5 (Joules/Mol)
                                   45.68989 (Kcal/Mol)
 Warning -- explicit consideration of   4 degrees of freedom as
           vibrations may cause significant error
 Vibrational temperatures:    168.78   315.56   413.38   676.40  1181.94
          (Kelvin)           1467.37  1570.42  1580.57  1686.72  1774.28
                             1797.90  1866.70  2010.53  2123.48  2185.63
                             2206.20  4289.50  4337.42  4364.42  4438.69
                             5528.21
 
 Zero-point correction=                           0.072811 (Hartree/Particle)
 Thermal correction to Energy=                    0.077798
 Thermal correction to Enthalpy=                  0.078742
 Thermal correction to Gibbs Free Energy=         0.045289
 Sum of electronic and zero-point Energies=           -254.207826
 Sum of electronic and thermal Energies=              -254.202839
 Sum of electronic and thermal Enthalpies=            -254.201895
 Sum of electronic and thermal Free Energies=         -254.235349
 
                     E (Thermal)             CV                S
                      KCal/Mol        Cal/Mol-Kelvin    Cal/Mol-Kelvin
 Total                   48.819             15.320             70.409
 Electronic               0.000              0.000              0.000
 Translational            0.889              2.981             38.389
 Rotational               0.889              2.981             24.084
 Vibrational             47.042              9.358              7.936
 Vibration     1          0.608              1.935              3.144
 Vibration     2          0.647              1.812              1.965
 Vibration     3          0.684              1.697              1.490
 Vibration     4          0.827              1.316              0.737
                       Q            Log10(Q)             Ln(Q)
 Total Bot       0.147481D-20        -20.831264        -47.965757
 Total V=0       0.456732D+13         12.659662         29.149948
 Vib (Bot)       0.178907D-32        -32.747372        -75.403610
 Vib (Bot)    1  0.174318D+01          0.241342          0.555710
 Vib (Bot)    2  0.902118D+00         -0.044737         -0.103010
 Vib (Bot)    3  0.666571D+00         -0.176154         -0.405609
 Vib (Bot)    4  0.358753D+00         -0.445205         -1.025122
 Vib (V=0)       0.554056D+01          0.743554          1.712095
 Vib (V=0)    1  0.231347D+01          0.364264          0.838748
 Vib (V=0)    2  0.153141D+01          0.185093          0.426192
 Vib (V=0)    3  0.133326D+01          0.124914          0.287624
 Vib (V=0)    4  0.111539D+01          0.047426          0.109203
 Electronic      0.100000D+01          0.000000          0.000000
 Translational   0.201397D+08          7.304054         16.818206
 Rotational      0.409312D+05          4.612054         10.619647
 ***** Axes restored to original set *****
 -------------------------------------------------------------------
 Center     Atomic                   Forces (Hartrees/Bohr)
 Number     Number              X              Y              Z
 -------------------------------------------------------------------
      1        6           0.000091745    0.000101775   -0.001068333
      2        1           0.000001590   -0.000000714    0.000001356
      3        1           0.000001397   -0.000000603   -0.000000877
      4        6          -0.000108341   -0.000135319   -0.001198732
      5        1           0.000001450    0.000001470   -0.000000156
      6        1           0.000004402    0.000001837    0.000001475
      7        9           0.000062763    0.000088427    0.001155359
      8        8          -0.000054213   -0.000055426    0.001109802
      9        1          -0.000000794   -0.000001446    0.000000107
 -------------------------------------------------------------------
 Cartesian Forces:  Max     0.001198732 RMS     0.000439336

 GradGradGradGradGradGradGradGradGradGradGradGradGradGradGradGradGradGrad
 Berny optimization.
 Search for a local minimum.
 Step number   1 out of a maximum of    2
 All quantities printed in internal units (Hartrees-Bohrs-Radians)
 Second derivative matrix not updated -- analytic derivatives used.
 ITU=  0
     Eigenvalues ---    0.00210   0.00274   0.01456   0.03046   0.05024
     Eigenvalues ---    0.06692   0.07641   0.08281   0.11865   0.11986
     Eigenvalues ---    0.15365   0.17110   0.21527   0.31041   0.47287
     Eigenvalues ---    0.66705   0.73667   0.75258   0.83159   0.84086
     Eigenvalues ---    1.04584
 Quadratic step=4.800D-01 exceeds max=3.000D-01 adjusted using Lamda=-1.301D-03.
 Angle between NR and scaled steps=   2.08 degrees.
 Angle between quadratic step and forces=  60.85 degrees.
 Linear search not attempted -- first point.
 B after Tr=    -0.000087    0.000501    0.028713
         Rot=    0.999999    0.000015    0.001453   -0.000616 Ang=   0.18 deg.
 Variable       Old X    -DE/DX   Delta X   Delta X   Delta X     New X
                                 (Linear)    (Quad)   (Total)
    X1       -1.04853   0.00009   0.00000   0.00206   0.00067  -1.04787
    Y1        0.94287   0.00010   0.00000  -0.00104  -0.00182   0.94105
    Z1        0.09654  -0.00107   0.00000  -0.04599  -0.02035   0.07619
    X2       -1.00434   0.00000   0.00000   0.07775   0.06994  -0.93440
    Y2        2.08527  -0.00000   0.00000   0.05281   0.05222   2.13749
    Z2        1.83298   0.00000   0.00000  -0.08229  -0.05635   1.77663
    X3       -0.78048   0.00000   0.00000  -0.06272  -0.06080  -0.84128
    Y3        2.23030  -0.00000   0.00000  -0.05073  -0.05131   2.17899
    Z3       -1.51566  -0.00000   0.00000  -0.09597  -0.06977  -1.58543
    X4        1.12552  -0.00011   0.00000  -0.00209  -0.00121   1.12431
    Y4       -0.93926  -0.00014   0.00000  -0.00302  -0.00113  -0.94040
    Z4        0.11250  -0.00120   0.00000  -0.04729  -0.01529   0.09722
    X5        0.92366   0.00000   0.00000   0.06842   0.07564   0.99930
    Y5       -2.23877   0.00000   0.00000   0.05025   0.05193  -2.18684
    Z5       -1.48893  -0.00000   0.00000  -0.09893  -0.06726  -1.55618
    X6        1.14631   0.00000   0.00000  -0.07922  -0.08189   1.06441
    Y6       -2.04425   0.00000   0.00000  -0.06216  -0.06029  -2.10454
    Z6        1.86423   0.00000   0.00000  -0.08310  -0.05122   1.81300
    X7        3.37569   0.00006   0.00000   0.00498   0.00446   3.38015
    Y7        0.35372   0.00009   0.00000   0.00912   0.01379   0.36750
    Z7       -0.11090   0.00116   0.00000   0.09914   0.13766   0.02676
    X8       -3.30186  -0.00005   0.00000  -0.00691  -0.00631  -3.30817
    Y8       -0.48579  -0.00006   0.00000  -0.00717  -0.01074  -0.49653
    Z8       -0.12033   0.00111   0.00000   0.10004   0.11916  -0.00117
    X9       -4.71334  -0.00000   0.00000   0.00044  -0.00050  -4.71384
    Y9        0.64869  -0.00000   0.00000   0.01267   0.00736   0.65605
    Z9        0.01385   0.00000   0.00000   0.00842   0.02341   0.03726
         Item               Value     Threshold  Converged?
 Maximum Force            0.001199     0.000450     NO 
 RMS     Force            0.000439     0.000300     NO 
 Maximum Displacement     0.137662     0.001800     NO 
 RMS     Displacement     0.055334     0.001200     NO 
 Predicted change in Energy=-2.252549D-04
 GradGradGradGradGradGradGradGradGradGradGradGradGradGradGradGradGradGrad


 ----------------------------------------------------------------------

 Electric dipole moment (input orientation):
 (Debye = 10**-18 statcoulomb cm , SI units = C m)
                  (au)            (Debye)         (10**-30 SI)
   Tot        0.699452D+00      0.177783D+01      0.593020D+01
   x         -0.617458D+00     -0.156942D+01     -0.523503D+01
   y          0.302226D+00      0.768183D+00      0.256238D+01
   z          0.128989D+00      0.327858D+00      0.109361D+01

 Dipole polarizability, Alpha (input orientation).
 (esu units = cm**3 , SI units = C**2 m**2 J**-1)
 Alpha(0;0):
               (au)            (10**-24 esu)      (10**-40 SI)
   iso        0.283029D+02      0.419406D+01      0.466652D+01
   aniso      0.484984D+01      0.718672D+00      0.799631D+00
   xx         0.312160D+02      0.462574D+01      0.514683D+01
   yx        -0.628645D+00     -0.931555D-01     -0.103650D+00
   yy         0.278811D+02      0.413155D+01      0.459697D+01
   zx        -0.129701D-01     -0.192197D-02     -0.213848D-02
   zy         0.981534D-01      0.145448D-01      0.161833D-01
   zz         0.258116D+02      0.382489D+01      0.425576D+01

 ----------------------------------------------------------------------

 Dipole orientation:
     6          0.03022657          0.41485039          1.35082605
     1          1.94612706          0.64110668          2.12565555
     1         -0.88668208          2.28228102          1.37316709
     6          0.18180922         -0.47734574         -1.37867681
     1         -1.71944373         -0.94505659         -2.05731212
     1          1.37943414         -2.15836077         -1.55144149
     9          1.17065480          1.43301205         -2.84758478
     8         -1.39206271         -1.42057735          2.68270317
     1         -1.39104613         -0.97746793          4.44365949

 Electric dipole moment (dipole orientation):
 (Debye = 10**-18 statcoulomb cm , SI units = C m)
                  (au)            (Debye)         (10**-30 SI)
   Tot        0.699452D+00      0.177783D+01      0.593020D+01
   x          0.000000D+00      0.000000D+00      0.000000D+00
   y          0.000000D+00      0.000000D+00      0.000000D+00
   z          0.699452D+00      0.177783D+01      0.593020D+01

 Dipole polarizability, Alpha (dipole orientation).
 (esu units = cm**3 , SI units = C**2 m**2 J**-1)
 Alpha(0;0):
               (au)            (10**-24 esu)      (10**-40 SI)
   iso        0.283029D+02      0.419406D+01      0.466652D+01
   aniso      0.484984D+01      0.718672D+00      0.799631D+00
   xx         0.265680D+02      0.393698D+01      0.438048D+01
   yx         0.967950D+00      0.143435D+00      0.159593D+00
   yy         0.274317D+02      0.406495D+01      0.452287D+01
   zx        -0.120552D+01     -0.178639D+00     -0.198763D+00
   zy        -0.412014D+00     -0.610542D-01     -0.679320D-01
   zz         0.309090D+02      0.458024D+01      0.509621D+01

 ----------------------------------------------------------------------
 Unable to Open any file for archive entry.
 1\1\GINC-COMPUTE-2-0\Freq\RB3LYP\6-31G(2df,p)\C2H5F1O1\JINGDAN2\05-Dec
 -2024\0\\# freq b3lyp/6-31g(2df,p)\\energy: -15.614184499692 gnorm: 0.
 000439253721 xtb: 6.6.1 (8d0f1dd)\\0,1\C,-0.55486,0.498945,0.051088\H,
 -0.531474,1.103476,0.969969\H,-0.413012,1.180223,-0.802052\C,0.595599,
 -0.497036,0.059535\H,0.488779,-1.184707,-0.787907\H,0.6066,-1.081772,0
 .986506\F,1.786338,0.187179,-0.058687\O,-1.747271,-0.257069,-0.063676\
 H,-2.494192,0.343272,0.007329\\Version=ES64L-G16RevC.01\State=1-A\HF=-
 254.2806373\RMSD=2.467e-09\RMSF=4.393e-04\ZeroPoint=0.0728115\Thermal=
 0.0777981\ETot=-254.2028392\HTot=-254.201895\GTot=-254.2353488\Dipole=
 -0.6174582,0.3022263,0.1289891\DipoleDeriv=0.6488052,0.2042883,0.00746
 23,0.2887161,0.3371886,0.0110996,0.0203257,0.0102501,0.4015562,-0.0439
 108,0.0063154,0.0021924,-0.028124,-0.0644528,-0.0936684,-0.0157006,-0.
 123706,-0.1301525,-0.0447487,-0.019468,0.0145654,-0.0433877,-0.0810913
 ,0.0912319,0.02877,0.122169,-0.109253,0.8089602,0.1761881,-0.0232162,0
 .2020464,0.4818191,-0.0279293,-0.0339086,-0.0206072,0.4178625,-0.00649
 64,-0.0058029,0.0051165,-0.0136389,-0.0515252,-0.0718499,-0.0088517,-0
 .1082848,-0.0807953,-0.0144171,0.016317,-0.0186982,0.0006611,-0.037819
 9,0.0721815,-0.0030197,0.1088803,-0.1026054,-0.7708333,-0.1930062,0.03
 23858,-0.2312211,-0.3690311,0.0238719,0.0452545,0.024571,-0.2393108,-0
 .8053177,-0.2390919,-0.0252008,-0.2485012,-0.3908798,0.0140479,-0.0351
 001,0.003801,-0.4866739,0.2279586,0.0542601,0.0053929,0.0734492,0.1757
 924,-0.0189852,0.0022306,-0.0170735,0.3293721\Polar=31.2160178,-0.6286
 448,27.8810558,-0.0129701,0.0981534,25.8116295\Quadrupole=-0.4642325,0
 .2958305,0.168402,-2.9639937,-0.1456826,-0.006274\PG=C01 [X(C2H5F1O1)]
 \NImag=0\\0.48249411,-0.00773721,0.54632914,-0.01274161,0.00297258,0.5
 8649182,-0.05143273,0.00525730,0.00580892,0.05828986,0.00332429,-0.115
 99558,-0.10251089,0.00334997,0.13168171,0.00529934,-0.10615450,-0.2295
 1266,0.00037729,0.12063533,0.24243495,-0.05133020,-0.00837113,0.016497
 21,0.00356231,0.00028935,0.00215152,0.06146600,-0.00955875,-0.13475317
 ,0.10936774,0.00243841,0.01065093,-0.01341079,0.02083163,0.15309796,0.
 01636899,0.11209663,-0.20821262,0.00121443,0.01615708,-0.02232708,-0.0
 2144695,-0.12589426,0.21707849,-0.11849606,0.07114889,-0.00205733,0.00
 099229,0.00080693,-0.00158086,0.00155259,-0.00083001,0.00130756,0.4752
 2073,0.07294669,-0.15142182,0.00026886,0.01596836,-0.01425264,0.001228
 64,0.01676509,-0.01657006,0.00082893,0.00732206,0.54776421,-0.00039498
 ,-0.00057840,-0.08520386,0.02312753,-0.02125074,0.00048413,-0.02136755
 ,0.02213690,-0.00111292,0.01202471,0.00061224,0.61693267,0.00183498,0.
 01668658,0.02068313,-0.00447672,0.00309100,-0.00043300,0.00106401,-0.0
 0076446,-0.00042762,-0.05023094,-0.00436798,-0.00854721,0.06163182,0.0
 0086192,-0.01555649,-0.02167757,0.00328917,-0.00236702,0.00045603,-0.0
 0086283,0.00092458,0.00014296,-0.00743438,-0.14309080,-0.11582822,0.01
 775108,0.16070783,-0.00137539,0.00037953,0.00009104,-0.00017329,0.0000
 7909,0.00159915,0.00041896,-0.00016251,0.00106111,-0.01348643,-0.12118
 651,-0.21644321,0.01653533,0.13354517,0.22269566,0.00110702,0.01515365
 ,-0.02258910,0.00127722,-0.00097318,0.00054421,-0.00453127,0.00321778,
 0.00014533,-0.05079353,0.00983447,-0.01556658,0.00393505,0.00236475,-0
 .00060972,0.05972602,0.00242257,-0.01243533,0.02119383,-0.00107667,0.0
 0099407,-0.00012464,0.00307205,-0.00240164,0.00006199,0.00713735,-0.11
 615313,0.10490314,0.00025131,0.01120639,-0.01677403,-0.00013283,0.1302
 0416,0.00184568,-0.00171032,0.00079725,-0.00050121,0.00012132,0.001351
 41,0.00031283,-0.00050891,0.00157493,-0.01019367,0.11025999,-0.2436281
 5,-0.00260549,0.01307591,-0.02047490,0.00546447,-0.12408392,0.25499727
 ,-0.04063763,-0.03116301,0.00310471,0.00171341,0.00065439,0.00152394,0
 .00268159,-0.00097168,-0.00122931,-0.21700325,-0.08682738,0.01342607,-
 0.01678334,-0.01468607,-0.00215927,-0.01299798,-0.01212072,0.00697796,
 0.29610719,0.00772465,0.01198785,-0.00031587,-0.00162021,0.00182097,0.
 00055850,-0.00124085,0.00286220,-0.00124005,-0.08870244,-0.11870528,0.
 00887585,-0.03153546,-0.01402431,0.00327299,-0.02814420,-0.01270237,0.
 00325680,0.13731056,0.12920799,0.00142077,0.00195203,0.00212615,-0.001
 53550,0.00130553,0.00038066,0.00069836,-0.00204367,0.00060008,0.015357
 12,0.00913987,-0.07214521,-0.02444525,-0.01128909,0.01105097,0.0310101
 4,0.01582720,0.00496790,-0.02219763,-0.01443084,0.05077628,-0.19142115
 ,-0.08657016,-0.01155659,-0.01237823,-0.01123804,-0.00709669,-0.016113
 42,-0.01504599,0.00327828,-0.03779873,-0.02500802,-0.00244352,0.002517
 84,-0.00094017,0.00072771,0.00188440,0.00036464,-0.00111134,-0.0109335
 6,0.00525445,-0.00020390,0.58208011,-0.04100897,-0.13946597,-0.0103058
 9,-0.02688893,-0.01273891,-0.00269090,-0.02968328,-0.01379913,-0.00250
 263,0.01231213,0.01522679,0.00166690,-0.00104252,0.00193350,0.00049229
 ,-0.00123337,0.00117038,-0.00030156,0.00964667,-0.00094655,-0.00064181
 ,-0.13058138,0.38833047,-0.00526995,-0.01086521,-0.06506190,-0.0277595
 0,-0.01555790,0.00494831,0.02197429,0.01146880,0.01109945,-0.00101853,
 -0.00013143,0.00180166,-0.00069356,0.00122248,0.00027060,0.00139340,-0
 .00090974,0.00034429,0.00095311,-0.00024048,0.00157493,-0.01364208,0.0
 4389146,0.04984194,-0.03211834,0.02559508,0.00285065,0.00245258,0.0006
 9529,-0.00078575,0.00164838,0.00068305,0.00078927,-0.00344309,-0.00663
 329,-0.00025848,0.00050730,-0.00034347,0.00012210,0.00039306,0.0000823
 0,-0.00018923,-0.00214642,0.00095350,-0.00010410,-0.31783726,0.2084796
 7,0.02406280,0.35054381,-0.02897519,0.01131137,0.00100720,-0.00071742,
 0.00020648,-0.00049767,-0.00080002,-0.00001167,0.00034935,-0.00176054,
 -0.00279726,-0.00053767,-0.00006955,0.00026632,0.00035400,-0.00008705,
 0.00011747,-0.00010931,-0.00184277,0.00049950,0.00018078,0.26376467,-0
 .23971058,-0.02887798,-0.22951213,0.23011838,-0.00515286,0.00190766,-0
 .00151521,-0.00055867,0.00102118,0.00064113,0.00076132,-0.00095330,0.0
 0023857,-0.00035257,-0.00102060,-0.00068511,-0.00006634,0.00035233,0.0
 0014958,0.00020784,-0.00009381,0.00007000,-0.00039960,0.00026310,0.000
 66824,0.03204813,-0.02960786,-0.00481929,-0.02648726,0.02813130,0.0052
 5209\\-0.00009175,-0.00010177,0.00106833,-0.00000159,0.00000071,-0.000
 00136,-0.00000140,0.00000060,0.00000088,0.00010834,0.00013532,0.001198
 73,-0.00000145,-0.00000147,0.00000016,-0.00000440,-0.00000184,-0.00000
 147,-0.00006276,-0.00008843,-0.00115536,0.00005421,0.00005543,-0.00110
 980,0.00000079,0.00000145,-0.00000011\\\@
 The archive entry for this job was punched.


 THERE ONCE WAS A GIRL NAMED IRENE,
 WHO LIVED ON DISTILLED KEROSENE,
      BUT SHE STARTED ABSORBIN'
      A NEW HYDROCARBON,
 AND SINCE THEN HAS NEVER BENZENE.
 Job cpu time:       0 days  0 hours  7 minutes  7.5 seconds.
 Elapsed time:       0 days  0 hours  0 minutes 54.6 seconds.
 File lengths (MBytes):  RWF=     21 Int=      0 D2E=      0 Chk=      2 Scr=      1
 Normal termination of Gaussian 16 at Thu Dec  5 18:23:59 2024.
