 Entering Gaussian System, Link 0=g16
 Input=rotation_std4.gjf
 Output=rotation_std4.log
 Initial command:
 /share/apps/gaussian/g16/l1.exe "/scratch/jingdan2/247468/Gau-88234.inp" -scrdir="/scratch/jingdan2/247468/"
 Entering Link 1 = /share/apps/gaussian/g16/l1.exe PID=     88237.
  
 Copyright (c) 1988-2019, Gaussian, Inc.  All Rights Reserved.
  
 This is part of the Gaussian(R) 16 program.  It is based on
 the Gaussian(R) 09 system (copyright 2009, Gaussian, Inc.),
 the Gaussian(R) 03 system (copyright 2003, Gaussian, Inc.),
 the Gaussian(R) 98 system (copyright 1998, Gaussian, Inc.),
 the Gaussian(R) 94 system (copyright 1995, Gaussian, Inc.),
 the Gaussian 92(TM) system (copyright 1992, Gaussian, Inc.),
 the Gaussian 90(TM) system (copyright 1990, Gaussian, Inc.),
 the Gaussian 88(TM) system (copyright 1988, Gaussian, Inc.),
 the Gaussian 86(TM) system (copyright 1986, Carnegie Mellon
 University), and the Gaussian 82(TM) system (copyright 1983,
 Carnegie Mellon University). Gaussian is a federally registered
 trademark of Gaussian, Inc.
  
 This software contains proprietary and confidential information,
 including trade secrets, belonging to Gaussian, Inc.
  
 This software is provided under written license and may be
 used, copied, transmitted, or stored only in accord with that
 written license.
  
 The following legend is applicable only to US Government
 contracts under FAR:
  
                    RESTRICTED RIGHTS LEGEND
  
 Use, reproduction and disclosure by the US Government is
 subject to restrictions as set forth in subparagraphs (a)
 and (c) of the Commercial Computer Software - Restricted
 Rights clause in FAR 52.227-19.
  
 Gaussian, Inc.
 340 Quinnipiac St., Bldg. 40, Wallingford CT 06492
  
  
 ---------------------------------------------------------------
 Warning -- This program may not be used in any manner that
 competes with the business of Gaussian, Inc. or will provide
 assistance to any competitor of Gaussian, Inc.  The licensee
 of this program is prohibited from giving any competitor of
 Gaussian, Inc. access to this program.  By using this program,
 the user acknowledges that Gaussian, Inc. is engaged in the
 business of creating and licensing software in the field of
 computational chemistry and represents and warrants to the
 licensee that it is not a competitor of Gaussian, Inc. and that
 it will not use this program in any manner prohibited above.
 ---------------------------------------------------------------
  

 Cite this work as:
 Gaussian 16, Revision C.01,
 M. J. Frisch, G. W. Trucks, H. B. Schlegel, G. E. Scuseria, 
 M. A. Robb, J. R. Cheeseman, G. Scalmani, V. Barone, 
 G. A. Petersson, H. Nakatsuji, X. Li, M. Caricato, A. V. Marenich, 
 J. Bloino, B. G. Janesko, R. Gomperts, B. Mennucci, H. P. Hratchian, 
 J. V. Ortiz, A. F. Izmaylov, J. L. Sonnenberg, D. Williams-Young, 
 F. Ding, F. Lipparini, F. Egidi, J. Goings, B. Peng, A. Petrone, 
 T. Henderson, D. Ranasinghe, V. G. Zakrzewski, J. Gao, N. Rega, 
 G. Zheng, W. Liang, M. Hada, M. Ehara, K. Toyota, R. Fukuda, 
 J. Hasegawa, M. Ishida, T. Nakajima, Y. Honda, O. Kitao, H. Nakai, 
 T. Vreven, K. Throssell, J. A. Montgomery, Jr., J. E. Peralta, 
 F. Ogliaro, M. J. Bearpark, J. J. Heyd, E. N. Brothers, K. N. Kudin, 
 V. N. Staroverov, T. A. Keith, R. Kobayashi, J. Normand, 
 K. Raghavachari, A. P. Rendell, J. C. Burant, S. S. Iyengar, 
 J. Tomasi, M. Cossi, J. M. Millam, M. Klene, C. Adamo, R. Cammi, 
 J. W. Ochterski, R. L. Martin, K. Morokuma, O. Farkas, 
 J. B. Foresman, and D. J. Fox, Gaussian, Inc., Wallingford CT, 2019.
 
 ******************************************
 Gaussian 16:  ES64L-G16RevC.01  3-Jul-2019
                 5-Dec-2024 
 ******************************************
 %nprocshared=8
 Will use up to    8 processors via shared memory.
 %mem=8GB
 -------------------------
 # freq b3lyp/6-31g(2df,p)
 -------------------------
 1/10=4,30=1,38=1/1,3;
 2/12=2,17=6,18=5,40=1/2;
 3/5=1,6=6,7=104,11=2,25=1,30=1,71=2,74=-5,140=1/1,2,3;
 4//1;
 5/5=2,38=5,98=1/2;
 8/6=4,10=90,11=11/1;
 11/6=1,8=1,9=11,15=111,16=1/1,2,10;
 10/6=1/2;
 6/7=2,8=2,9=2,10=2,28=1/1;
 7/8=1,10=1,25=1/1,2,3,16;
 1/10=4,30=1/3;
 99//99;
 -------------------------------------------------------------------
 energy: -15.614184499692 gnorm: 0.000439253721 xtb: 6.6.1 (8d0f1dd)
 -------------------------------------------------------------------
 Symbolic Z-matrix:
 Charge =  0 Multiplicity = 1
 C                    -0.56862   0.49214  -0.15476 
 H                    -0.34519   1.25415   0.60764 
 H                    -0.67608   1.00397  -1.12178 
 C                     0.60904  -0.47963  -0.17414 
 H                     0.7534   -0.942    -1.15679 
 H                     0.41336  -1.26759   0.56288 
 F                     1.76566   0.18464   0.17708 
 O                    -1.72314  -0.26102   0.17757 
 H                    -2.49376   0.30282   0.06717 
 

 GradGradGradGradGradGradGradGradGradGradGradGradGradGradGradGradGradGrad
 Berny optimization.
 Initialization pass.
 Trust Radius=3.00D-01 FncErr=1.00D-07 GrdErr=1.00D-07 EigMax=2.50D+02 EigMin=1.00D-04
 Number of steps in this run=      2 maximum allowed number of steps=      2.
 GradGradGradGradGradGradGradGradGradGradGradGradGradGradGradGradGradGrad

                          Input orientation:                          
 ---------------------------------------------------------------------
 Center     Atomic      Atomic             Coordinates (Angstroms)
 Number     Number       Type             X           Y           Z
 ---------------------------------------------------------------------
      1          6           0       -0.568619    0.492140   -0.154757
      2          1           0       -0.345185    1.254154    0.607642
      3          1           0       -0.676076    1.003966   -1.121779
      4          6           0        0.609038   -0.479633   -0.174135
      5          1           0        0.753400   -0.941995   -1.156788
      6          1           0        0.413360   -1.267586    0.562877
      7          9           0        1.765656    0.184638    0.177075
      8          8           0       -1.723144   -0.261018    0.177569
      9          1           0       -2.493764    0.302821    0.067174
 ---------------------------------------------------------------------
                    Distance matrix (angstroms):
                    1          2          3          4          5
     1  C    0.000000
     2  H    1.100836   0.000000
     3  H    1.099384   1.778477   0.000000
     4  C    1.526956   2.127847   2.179590   0.000000
     5  H    2.192839   3.023768   2.414827   1.095548   0.000000
     6  H    2.139139   2.633736   3.030658   1.096516   1.782943
     7  F    2.377711   2.405182   2.884506   1.379264   2.018206
     8  O    1.417962   2.092721   2.094001   2.368662   2.894393
     9  H    1.947121   2.411127   2.282368   3.209025   3.686696
                    6          7          8          9
     6  H    0.000000
     7  F    2.021510   0.000000
     8  O    2.392967   3.517149   0.000000
     9  H    3.341148   4.262476   0.961227   0.000000
 Stoichiometry    C2H5FO
 Framework group  C1[X(C2H5FO)]
 Deg. of freedom    21
 Full point group                 C1      NOp   1
 Largest Abelian subgroup         C1      NOp   1
 Largest concise Abelian subgroup C1      NOp   1
                         Standard orientation:                         
 ---------------------------------------------------------------------
 Center     Atomic      Atomic             Coordinates (Angstroms)
 Number     Number       Type             X           Y           Z
 ---------------------------------------------------------------------
      1          6           0        0.568619    0.492140    0.154757
      2          1           0        0.345185    1.254154   -0.607642
      3          1           0        0.676076    1.003966    1.121779
      4          6           0       -0.609038   -0.479633    0.174135
      5          1           0       -0.753400   -0.941995    1.156788
      6          1           0       -0.413360   -1.267586   -0.562877
      7          9           0       -1.765656    0.184638   -0.177075
      8          8           0        1.723144   -0.261018   -0.177569
      9          1           0        2.493764    0.302821   -0.067174
 ---------------------------------------------------------------------
 Rotational constants (GHZ):          28.8054495           3.9628614           3.7436909
 Standard basis: 6-31G(2df,p) (6D, 7F)
 There are   149 symmetry adapted cartesian basis functions of A   symmetry.
 There are   137 symmetry adapted basis functions of A   symmetry.
   137 basis functions,   211 primitive gaussians,   149 cartesian basis functions
    17 alpha electrons       17 beta electrons
       nuclear repulsion energy       128.0112241466 Hartrees.
 NAtoms=    9 NActive=    9 NUniq=    9 SFac= 1.00D+00 NAtFMM=   60 NAOKFM=F Big=F
 Integral buffers will be    131072 words long.
 Raffenetti 2 integral format.
 Two-electron integral symmetry is turned on.
 One-electron integrals computed using PRISM.
 NBasis=   137 RedAO= T EigKep=  1.22D-03  NBF=   137
 NBsUse=   137 1.00D-06 EigRej= -1.00D+00 NBFU=   137
 ExpMin= 1.61D-01 ExpMax= 7.00D+03 ExpMxC= 1.05D+03 IAcc=3 IRadAn=         5 AccDes= 0.00D+00
 Harris functional with IExCor=  402 and IRadAn=       5 diagonalized for initial guess.
 HarFok:  IExCor=  402 AccDes= 0.00D+00 IRadAn=         5 IDoV= 1 UseB2=F ITyADJ=14
 ICtDFT=  3500011 ScaDFX=  1.000000  1.000000  1.000000  1.000000
 FoFCou: FMM=F IPFlag=           0 FMFlag=      100000 FMFlg1=           0
         NFxFlg=           0 DoJE=T BraDBF=F KetDBF=T FulRan=T
         wScrn=  0.000000 ICntrl=       500 IOpCl=  0 I1Cent=   200000004 NGrid=           0
         NMat0=    1 NMatS0=      1 NMatT0=    0 NMatD0=    1 NMtDS0=    0 NMtDT0=    0
 Petite list used in FoFCou.
 Keep R1 ints in memory in canonical form, NReq=52495207.
 Requested convergence on RMS density matrix=1.00D-08 within 128 cycles.
 Requested convergence on MAX density matrix=1.00D-06.
 Requested convergence on             energy=1.00D-06.
 No special actions if energy rises.
 Integral accuracy reduced to 1.0D-05 until final iterations.
 Initial convergence to 1.0D-05 achieved.  Increase integral accuracy.
 SCF Done:  E(RB3LYP) =  -254.278890593     A.U. after   11 cycles
            NFock= 11  Conv=0.87D-08     -V/T= 2.0064
 DoSCS=F DFT=T ScalE2(SS,OS)=  1.000000  1.000000
 Range of M.O.s used for correlation:     1   137
 NBasis=   137 NAE=    17 NBE=    17 NFC=     0 NFV=     0
 NROrb=    137 NOA=    17 NOB=    17 NVA=   120 NVB=   120

 **** Warning!!: The largest alpha MO coefficient is  0.18609045D+02

 Symmetrizing basis deriv contribution to polar:
 IMax=3 JMax=2 DiffMx= 0.00D+00
 G2DrvN: will do    10 centers at a time, making    1 passes.
 Calling FoFCou, ICntrl=  3107 FMM=F I1Cent=   0 AccDes= 0.00D+00.
 End of G2Drv F.D. properties file   721 does not exist.
 End of G2Drv F.D. properties file   722 does not exist.
 End of G2Drv F.D. properties file   788 does not exist.
          IDoAtm=111111111
          Differentiating once with respect to electric field.
                with respect to dipole field.
          Differentiating once with respect to nuclear coordinates.
 Keep R1 ints in memory in canonical form, NReq=52475930.
          There are    30 degrees of freedom in the 1st order CPHF.  IDoFFX=6 NUNeed=     3.
     27 vectors produced by pass  0 Test12= 6.80D-15 3.33D-09 XBig12= 1.53D+01 1.46D+00.
 AX will form    27 AO Fock derivatives at one time.
     27 vectors produced by pass  1 Test12= 6.80D-15 3.33D-09 XBig12= 1.15D+00 2.29D-01.
     27 vectors produced by pass  2 Test12= 6.80D-15 3.33D-09 XBig12= 1.88D-02 2.78D-02.
     27 vectors produced by pass  3 Test12= 6.80D-15 3.33D-09 XBig12= 6.52D-05 1.22D-03.
     27 vectors produced by pass  4 Test12= 6.80D-15 3.33D-09 XBig12= 9.97D-08 5.22D-05.
     14 vectors produced by pass  5 Test12= 6.80D-15 3.33D-09 XBig12= 7.48D-11 1.36D-06.
      3 vectors produced by pass  6 Test12= 6.80D-15 3.33D-09 XBig12= 6.33D-14 4.37D-08.
 InvSVY:  IOpt=1 It=  1 EMax= 3.55D-15
 Solved reduced A of dimension   152 with    30 vectors.
 Isotropic polarizability for W=    0.000000       28.31 Bohr**3.
 End of Minotr F.D. properties file   721 does not exist.
 End of Minotr F.D. properties file   722 does not exist.
 End of Minotr F.D. properties file   788 does not exist.

 **********************************************************************

            Population analysis using the SCF Density.

 **********************************************************************

 Orbital symmetries:
       Occupied  (A) (A) (A) (A) (A) (A) (A) (A) (A) (A) (A) (A)
                 (A) (A) (A) (A) (A)
       Virtual   (A) (A) (A) (A) (A) (A) (A) (A) (A) (A) (A) (A)
                 (A) (A) (A) (A) (A) (A) (A) (A) (A) (A) (A) (A)
                 (A) (A) (A) (A) (A) (A) (A) (A) (A) (A) (A) (A)
                 (A) (A) (A) (A) (A) (A) (A) (A) (A) (A) (A) (A)
                 (A) (A) (A) (A) (A) (A) (A) (A) (A) (A) (A) (A)
                 (A) (A) (A) (A) (A) (A) (A) (A) (A) (A) (A) (A)
                 (A) (A) (A) (A) (A) (A) (A) (A) (A) (A) (A) (A)
                 (A) (A) (A) (A) (A) (A) (A) (A) (A) (A) (A) (A)
                 (A) (A) (A) (A) (A) (A) (A) (A) (A) (A) (A) (A)
                 (A) (A) (A) (A) (A) (A) (A) (A) (A) (A) (A) (A)
 The electronic state is 1-A.
 Alpha  occ. eigenvalues --  -24.66618 -19.14415 -10.25113 -10.23458  -1.18095
 Alpha  occ. eigenvalues --   -1.02525  -0.74588  -0.62121  -0.52986  -0.49912
 Alpha  occ. eigenvalues --   -0.46051  -0.45384  -0.42306  -0.36480  -0.32993
 Alpha  occ. eigenvalues --   -0.32145  -0.27630
 Alpha virt. eigenvalues --    0.06347   0.10481   0.14274   0.14741   0.15753
 Alpha virt. eigenvalues --    0.19914   0.21991   0.25174   0.42673   0.47066
 Alpha virt. eigenvalues --    0.48750   0.51336   0.54036   0.63589   0.66220
 Alpha virt. eigenvalues --    0.68003   0.69858   0.71686   0.76597   0.78849
 Alpha virt. eigenvalues --    0.79284   0.83850   0.87268   0.89300   0.91158
 Alpha virt. eigenvalues --    0.93592   0.97300   0.99777   1.04026   1.06990
 Alpha virt. eigenvalues --    1.08624   1.10975   1.25397   1.27023   1.30086
 Alpha virt. eigenvalues --    1.38454   1.40589   1.43775   1.48804   1.52586
 Alpha virt. eigenvalues --    1.59545   1.63597   1.65458   1.70032   1.76486
 Alpha virt. eigenvalues --    1.92381   1.96803   2.05863   2.11901   2.20707
 Alpha virt. eigenvalues --    2.26004   2.39531   2.42892   2.48588   2.53531
 Alpha virt. eigenvalues --    2.60057   2.66644   2.68099   2.80976   2.82566
 Alpha virt. eigenvalues --    2.87567   2.92065   2.94134   2.96693   3.05795
 Alpha virt. eigenvalues --    3.15848   3.26956   3.33556   3.36528   3.38355
 Alpha virt. eigenvalues --    3.39636   3.50982   3.54420   3.56219   3.78908
 Alpha virt. eigenvalues --    3.81289   3.86339   3.93703   4.13113   4.17993
 Alpha virt. eigenvalues --    4.20697   4.28887   4.34016   4.39335   4.41611
 Alpha virt. eigenvalues --    4.41937   4.49429   4.51995   4.56375   4.57351
 Alpha virt. eigenvalues --    4.61360   4.65358   4.69536   4.70095   4.72578
 Alpha virt. eigenvalues --    4.76424   4.80552   4.84617   4.97334   5.22574
 Alpha virt. eigenvalues --    5.30825   5.40221   5.46238   5.52247   5.81870
 Alpha virt. eigenvalues --    5.92108   5.97186   6.06051   6.66877   6.67782
 Alpha virt. eigenvalues --    6.79239   6.80067   7.03696   7.24700   7.30969
 Alpha virt. eigenvalues --    7.34038   9.54724  10.97794  11.87554  13.14731
          Condensed to atoms (all electrons):
               1          2          3          4          5          6
     1  C    4.889789   0.356717   0.357230   0.352813  -0.038233  -0.049054
     2  H    0.356717   0.656689  -0.055828  -0.042935   0.006781  -0.003099
     3  H    0.357230  -0.055828   0.661811  -0.025283  -0.008989   0.006795
     4  C    0.352813  -0.042935  -0.025283   4.694689   0.354194   0.354826
     5  H   -0.038233   0.006781  -0.008989   0.354194   0.650102  -0.050652
     6  H   -0.049054  -0.003099   0.006795   0.354826  -0.050652   0.636047
     7  F   -0.037354   0.007392   0.001616   0.377942  -0.021910  -0.021400
     8  O    0.309458  -0.026905  -0.028448  -0.027496   0.003136   0.009379
     9  H   -0.045320  -0.002349  -0.005088   0.005736  -0.000350  -0.000125
               7          8          9
     1  C   -0.037354   0.309458  -0.045320
     2  H    0.007392  -0.026905  -0.002349
     3  H    0.001616  -0.028448  -0.005088
     4  C    0.377942  -0.027496   0.005736
     5  H   -0.021910   0.003136  -0.000350
     6  H   -0.021400   0.009379  -0.000125
     7  F    8.850745   0.000544  -0.000045
     8  O    0.000544   7.873670   0.304163
     9  H   -0.000045   0.304163   0.450739
 Mulliken charges:
               1
     1  C   -0.096046
     2  H    0.103537
     3  H    0.096183
     4  C   -0.044485
     5  H    0.105920
     6  H    0.117283
     7  F   -0.157530
     8  O   -0.417502
     9  H    0.292639
 Sum of Mulliken charges =  -0.00000
 Mulliken charges with hydrogens summed into heavy atoms:
               1
     1  C    0.103674
     4  C    0.178719
     7  F   -0.157530
     8  O   -0.124863
 APT charges:
               1
     1  C    0.453074
     2  H   -0.071896
     3  H   -0.078936
     4  C    0.559352
     5  H   -0.053302
     6  H   -0.037937
     7  F   -0.456933
     8  O   -0.555843
     9  H    0.242421
 Sum of APT charges =   0.00000
 APT charges with hydrogens summed into heavy atoms:
               1
     1  C    0.302242
     4  C    0.468113
     7  F   -0.456933
     8  O   -0.313422
 Electronic spatial extent (au):  <R**2>=            325.1604
 Charge=             -0.0000 electrons
 Dipole moment (field-independent basis, Debye):
    X=              1.5959    Y=              0.7309    Z=              0.8068  Tot=              1.9318
 Quadrupole moment (field-independent basis, Debye-Ang):
   XX=            -23.6552   YY=            -23.0014   ZZ=            -23.2020
   XY=              3.7765   XZ=              0.1018   YZ=             -0.1103
 Traceless Quadrupole moment (field-independent basis, Debye-Ang):
   XX=             -0.3690   YY=              0.2848   ZZ=              0.0842
   XY=              3.7765   XZ=              0.1018   YZ=             -0.1103
 Octapole moment (field-independent basis, Debye-Ang**2):
  XXX=             13.9300  YYY=              0.4436  ZZZ=             -1.1516  XYY=             -2.2719
  XXY=              5.4501  XXZ=              0.9697  XZZ=             -2.7780  YZZ=              0.1714
  YYZ=             -0.9008  XYZ=             -0.0458
 Hexadecapole moment (field-independent basis, Debye-Ang**3):
 XXXX=           -212.6014 YYYY=            -60.7309 ZZZZ=            -36.9890 XXXY=             10.9733
 XXXZ=              0.7722 YYYX=             -2.7619 YYYZ=             -0.0498 ZZZX=              1.4430
 ZZZY=             -0.3460 XXYY=            -51.2789 XXZZ=            -48.7625 YYZZ=            -15.2473
 XXYZ=             -0.4778 YYXZ=              0.4033 ZZXY=             -0.2264
 N-N= 1.280112241466D+02 E-N=-8.557197396734D+02  KE= 2.526721617251D+02
  Exact polarizability:      31.492       0.738      27.609      -0.224       0.212      25.820
 Approx polarizability:      39.867      -1.130      37.559       0.166       0.493      35.176
 Calling FoFJK, ICntrl=    100127 FMM=F ISym2X=0 I1Cent= 0 IOpClX= 0 NMat=1 NMatS=1 NMatT=0.
 Full mass-weighted force constant matrix:
 Low frequencies ---  -14.5104   -7.8095   -0.0010   -0.0008   -0.0007   21.2631
 Low frequencies ---   43.6350  239.9919  324.2405
 Diagonal vibrational polarizability:
        7.5282200       5.7598174     119.8403598
 Harmonic frequencies (cm**-1), IR intensities (KM/Mole), Raman scattering
 activities (A**4/AMU), depolarization ratios for plane and unpolarized
 incident light, reduced masses (AMU), force constants (mDyne/A),
 and normal coordinates:
                      1                      2                      3
                      A                      A                      A
 Frequencies --     43.5432               239.9728               324.0695
 Red. masses --      3.0623                 1.1171                 3.2118
 Frc consts  --      0.0034                 0.0379                 0.1987
 IR Inten    --      4.9829               109.3172                18.8734
  Atom  AN      X      Y      Z        X      Y      Z        X      Y      Z
     1   6    -0.02   0.01  -0.20     0.01   0.03  -0.02     0.10   0.20   0.07
     2   1     0.10  -0.15  -0.40     0.02   0.06   0.00     0.30   0.32   0.14
     3   1    -0.24   0.22  -0.29     0.05   0.01  -0.02     0.21   0.05   0.14
     4   6     0.03  -0.03  -0.21     0.01   0.03   0.01     0.11   0.18  -0.08
     5   1     0.25  -0.25  -0.28     0.04   0.06   0.03     0.24   0.00  -0.15
     6   1    -0.10   0.14  -0.42     0.03   0.01   0.04     0.30   0.33  -0.18
     7   9    -0.05   0.03   0.17    -0.02  -0.03   0.00    -0.09  -0.14   0.00
     8   8     0.06  -0.02   0.18    -0.01   0.00  -0.06    -0.12  -0.14   0.03
     9   1     0.02   0.01   0.24     0.10  -0.35   0.92     0.04  -0.28  -0.41
                      4                      5                      6
                      A                      A                      A
 Frequencies --    463.4766               824.9142              1011.6222
 Red. masses --      6.6448                 1.1873                 2.7170
 Frc consts  --      0.8410                 0.4760                 1.6382
 IR Inten    --      1.4310                 2.2303                35.0596
  Atom  AN      X      Y      Z        X      Y      Z        X      Y      Z
     1   6    -0.21   0.10  -0.02    -0.01  -0.01  -0.07    -0.15  -0.21  -0.00
     2   1    -0.35  -0.06  -0.14     0.22   0.35   0.23    -0.13  -0.20   0.01
     3   1    -0.25   0.26  -0.10    -0.20  -0.44   0.19    -0.06  -0.21  -0.02
     4   6     0.17  -0.12  -0.00     0.01   0.00  -0.08     0.09   0.27   0.00
     5   1     0.20  -0.28  -0.07     0.20   0.45   0.17     0.19   0.14  -0.05
     6   1     0.29   0.02  -0.13    -0.22  -0.34   0.24     0.26   0.36  -0.05
     7   9     0.36   0.05   0.02     0.03  -0.01   0.03     0.03  -0.04   0.01
     8   8    -0.38  -0.02   0.02    -0.03   0.01   0.03     0.02  -0.03  -0.01
     9   1    -0.21  -0.25   0.03    -0.04   0.03  -0.01    -0.41   0.52   0.20
                      7                      8                      9
                      A                      A                      A
 Frequencies --   1081.6497              1100.9446              1157.4512
 Red. masses --      7.2565                 4.3084                 1.6187
 Frc consts  --      5.0021                 3.0768                 1.2777
 IR Inten    --    146.0747                15.1670                 0.3414
  Atom  AN      X      Y      Z        X      Y      Z        X      Y      Z
     1   6     0.35  -0.30  -0.01    -0.21   0.10   0.05    -0.00  -0.03   0.16
     2   1    -0.03  -0.49  -0.13    -0.36   0.05   0.08     0.04  -0.40  -0.23
     3   1     0.30   0.01  -0.15    -0.40  -0.05   0.13    -0.40   0.43  -0.04
     4   6     0.31  -0.06   0.00     0.32  -0.14   0.04    -0.00   0.04  -0.14
     5   1     0.25   0.12   0.06     0.42   0.13   0.16    -0.15   0.45   0.02
     6   1     0.07  -0.18   0.08     0.36  -0.19   0.14    -0.02  -0.25   0.18
     7   9    -0.20   0.09  -0.05    -0.17   0.13  -0.05     0.02  -0.02   0.04
     8   8    -0.29   0.20   0.07     0.12  -0.11  -0.04     0.01   0.01  -0.05
     9   1    -0.12  -0.05   0.02     0.09  -0.06  -0.03     0.15  -0.19  -0.07
                     10                     11                     12
                      A                      A                      A
 Frequencies --   1243.3180              1256.0794              1291.1740
 Red. masses --      1.1449                 1.1607                 1.0825
 Frc consts  --      1.0427                 1.0790                 1.0633
 IR Inten    --      2.7701                36.8091                 8.8695
  Atom  AN      X      Y      Z        X      Y      Z        X      Y      Z
     1   6    -0.01   0.02  -0.03     0.00   0.04   0.04     0.01  -0.02  -0.06
     2   1    -0.48   0.06   0.13     0.56   0.03  -0.12     0.38   0.07  -0.06
     3   1     0.52  -0.05  -0.06     0.23   0.21  -0.06    -0.42  -0.17   0.07
     4   6     0.01  -0.01  -0.09    -0.00  -0.07  -0.02     0.01  -0.00   0.04
     5   1    -0.46   0.23  -0.05    -0.01   0.03   0.02    -0.49  -0.09  -0.08
     6   1     0.38  -0.17   0.16     0.13  -0.14   0.08     0.58   0.07   0.10
     7   9    -0.00   0.00   0.04    -0.01   0.02   0.00    -0.01   0.01   0.02
     8   8     0.01  -0.01   0.03    -0.02  -0.04  -0.03    -0.01   0.02  -0.01
     9   1    -0.04   0.05   0.03    -0.45   0.53   0.20     0.09  -0.11  -0.05
                     13                     14                     15
                      A                      A                      A
 Frequencies --   1398.4229              1471.5937              1512.5506
 Red. masses --      1.2700                 1.4895                 1.0821
 Frc consts  --      1.4633                 1.9005                 1.4586
 IR Inten    --      8.0677                 4.1469                 0.2764
  Atom  AN      X      Y      Z        X      Y      Z        X      Y      Z
     1   6    -0.06  -0.05   0.01     0.16   0.06  -0.01    -0.02   0.03   0.01
     2   1     0.20  -0.01  -0.02    -0.49  -0.13  -0.02     0.09  -0.22  -0.26
     3   1     0.32   0.03  -0.08    -0.48  -0.10   0.16     0.13  -0.29   0.14
     4   6    -0.11  -0.03  -0.02    -0.11  -0.03  -0.01     0.02  -0.06   0.02
     5   1     0.59   0.13   0.16     0.31   0.11   0.13    -0.20   0.52   0.24
     6   1     0.56   0.08   0.03     0.37   0.11  -0.04    -0.09   0.39  -0.47
     7   9     0.00   0.02  -0.00     0.00   0.01  -0.00     0.00  -0.01   0.00
     8   8     0.01   0.04   0.01    -0.01  -0.04  -0.01    -0.00   0.01   0.00
     9   1     0.22  -0.24  -0.10    -0.25   0.28   0.12     0.02  -0.02  -0.00
                     16                     17                     18
                      A                      A                      A
 Frequencies --   1528.7570              2983.6191              3019.1776
 Red. masses --      1.0858                 1.0556                 1.1046
 Frc consts  --      1.4951                 5.5367                 5.9324
 IR Inten    --      4.9108                46.1164                36.1426
  Atom  AN      X      Y      Z        X      Y      Z        X      Y      Z
     1   6     0.01  -0.07  -0.02    -0.00   0.07  -0.00    -0.02   0.00  -0.09
     2   1    -0.02   0.43   0.45     0.15  -0.54   0.57     0.10  -0.40   0.39
     3   1    -0.18   0.51  -0.27    -0.06  -0.25  -0.53     0.09   0.36   0.69
     4   6     0.01  -0.04   0.01    -0.00  -0.00  -0.00    -0.00  -0.01   0.02
     5   1    -0.09   0.29   0.14     0.00   0.01  -0.02     0.03   0.10  -0.22
     6   1     0.01   0.24  -0.27    -0.01   0.03   0.03     0.00  -0.01  -0.00
     7   9     0.00  -0.00  -0.00     0.00  -0.00   0.00     0.00  -0.00   0.00
     8   8     0.00  -0.01  -0.00    -0.00   0.00   0.00     0.00   0.00   0.00
     9   1    -0.02   0.02   0.01    -0.00   0.00   0.00    -0.00  -0.01   0.00
                     19                     20                     21
                      A                      A                      A
 Frequencies --   3034.7030              3086.8736              3837.7884
 Red. masses --      1.0569                 1.1101                 1.0665
 Frc consts  --      5.7345                 6.2325                 9.2548
 IR Inten    --     37.2500                51.2015                26.1952
  Atom  AN      X      Y      Z        X      Y      Z        X      Y      Z
     1   6    -0.00   0.00  -0.01    -0.00  -0.00  -0.02     0.00  -0.00  -0.00
     2   1     0.02  -0.09   0.08     0.02  -0.07   0.07     0.00  -0.00  -0.00
     3   1     0.01   0.04   0.08     0.02   0.07   0.14     0.00   0.00   0.00
     4   6    -0.00   0.07  -0.00     0.02  -0.01  -0.09     0.00   0.00  -0.00
     5   1    -0.09  -0.25   0.58    -0.11  -0.31   0.66    -0.00  -0.00   0.00
     6   1     0.13  -0.53  -0.52    -0.10   0.47   0.44     0.00   0.00   0.00
     7   9    -0.00   0.00  -0.00    -0.00   0.00   0.00     0.00   0.00   0.00
     8   8     0.00  -0.00  -0.00     0.00   0.00   0.00    -0.05  -0.03  -0.01
     9   1     0.00  -0.00  -0.00    -0.00  -0.00   0.00     0.81   0.58   0.11

 -------------------
 - Thermochemistry -
 -------------------
 Temperature   298.150 Kelvin.  Pressure   1.00000 Atm.
 Atom     1 has atomic number  6 and mass  12.00000
 Atom     2 has atomic number  1 and mass   1.00783
 Atom     3 has atomic number  1 and mass   1.00783
 Atom     4 has atomic number  6 and mass  12.00000
 Atom     5 has atomic number  1 and mass   1.00783
 Atom     6 has atomic number  1 and mass   1.00783
 Atom     7 has atomic number  9 and mass  18.99840
 Atom     8 has atomic number  8 and mass  15.99491
 Atom     9 has atomic number  1 and mass   1.00783
 Molecular mass:    64.03244 amu.
 Principal axes and moments of inertia in atomic units:
                           1         2         3
     Eigenvalues --    62.65277 455.41365 482.07538
           X            0.99951   0.03101  -0.00423
           Y           -0.03102   0.99952  -0.00140
           Z            0.00419   0.00153   0.99999
 This molecule is an asymmetric top.
 Rotational symmetry number  1.
 Rotational temperatures (Kelvin)      1.38244     0.19019     0.17967
 Rotational constants (GHZ):          28.80545     3.96286     3.74369
 Zero-point vibrational energy     190874.4 (Joules/Mol)
                                   45.62007 (Kcal/Mol)
 Warning -- explicit consideration of   4 degrees of freedom as
           vibrations may cause significant error
 Vibrational temperatures:     62.65   345.27   466.26   666.84  1186.87
          (Kelvin)           1455.50  1556.25  1584.01  1665.31  1788.86
                             1807.22  1857.71  2012.02  2117.30  2176.22
                             2199.54  4292.76  4343.92  4366.26  4441.32
                             5521.72
 
 Zero-point correction=                           0.072700 (Hartree/Particle)
 Thermal correction to Energy=                    0.077765
 Thermal correction to Enthalpy=                  0.078709
 Thermal correction to Gibbs Free Energy=         0.044467
 Sum of electronic and zero-point Energies=           -254.206190
 Sum of electronic and thermal Energies=              -254.201126
 Sum of electronic and thermal Enthalpies=            -254.200182
 Sum of electronic and thermal Free Energies=         -254.234423
 
                     E (Thermal)             CV                S
                      KCal/Mol        Cal/Mol-Kelvin    Cal/Mol-Kelvin
 Total                   48.798             15.295             72.068
 Electronic               0.000              0.000              0.000
 Translational            0.889              2.981             38.389
 Rotational               0.889              2.981             24.135
 Vibrational             47.021              9.333              9.544
 Vibration     1          0.595              1.980              5.091
 Vibration     2          0.657              1.779              1.803
 Vibration     3          0.709              1.627              1.289
 Vibration     4          0.821              1.331              0.756
                       Q            Log10(Q)             Ln(Q)
 Total Bot       0.352006D-20        -20.453450        -47.095809
 Total V=0       0.968932D+13         12.986293         29.902046
 Vib (Bot)       0.416313D-32        -32.380580        -74.559041
 Vib (Bot)    1  0.475032D+01          0.676722          1.558211
 Vib (Bot)    2  0.817105D+00         -0.087722         -0.201987
 Vib (Bot)    3  0.578650D+00         -0.237584         -0.547057
 Vib (Bot)    4  0.365925D+00         -0.436607         -1.005326
 Vib (V=0)       0.114594D+02          1.059163          2.438814
 Vib (V=0)    1  0.527656D+01          0.722351          1.663274
 Vib (V=0)    2  0.145795D+01          0.163742          0.377029
 Vib (V=0)    3  0.126475D+01          0.102003          0.234871
 Vib (V=0)    4  0.111960D+01          0.049062          0.112969
 Electronic      0.100000D+01          0.000000          0.000000
 Translational   0.201397D+08          7.304054         16.818206
 Rotational      0.419833D+05          4.623076         10.645026
 ***** Axes restored to original set *****
 -------------------------------------------------------------------
 Center     Atomic                   Forces (Hartrees/Bohr)
 Number     Number              X              Y              Z
 -------------------------------------------------------------------
      1        6           0.000518209    0.000751308    0.002339537
      2        1           0.000022598    0.000052699   -0.000023100
      3        1           0.000082341    0.000014520   -0.000004070
      4        6          -0.000465171   -0.000761942    0.002647288
      5        1          -0.000095548   -0.000046296   -0.000017202
      6        1           0.000016132   -0.000043655   -0.000027130
      7        9           0.000400431    0.000544025   -0.002497797
      8        8          -0.000518826   -0.000496003   -0.002419836
      9        1           0.000039835   -0.000014656    0.000002309
 -------------------------------------------------------------------
 Cartesian Forces:  Max     0.002647288 RMS     0.001003784

 GradGradGradGradGradGradGradGradGradGradGradGradGradGradGradGradGradGrad
 Berny optimization.
 Search for a local minimum.
 Step number   1 out of a maximum of    2
 All quantities printed in internal units (Hartrees-Bohrs-Radians)
 Second derivative matrix not updated -- analytic derivatives used.
 ITU=  0
     Eigenvalues ---    0.00026   0.00350   0.01724   0.03173   0.05236
     Eigenvalues ---    0.06743   0.07663   0.08226   0.11819   0.11926
     Eigenvalues ---    0.15233   0.16662   0.21221   0.30748   0.47059
     Eigenvalues ---    0.65603   0.72568   0.76268   0.82736   0.83584
     Eigenvalues ---    1.04435
 Quadratic step=8.316D+00 exceeds max=3.000D-01 adjusted using Lamda=-7.330D-03.
 Angle between NR and scaled steps=  14.11 degrees.
 Angle between quadratic step and forces=  59.27 degrees.
 Linear search not attempted -- first point.
 B after Tr=     0.001242    0.001472   -0.027840
         Rot=    0.999997    0.000159   -0.001728   -0.001425 Ang=   0.26 deg.
 Variable       Old X    -DE/DX   Delta X   Delta X   Delta X     New X
                                 (Linear)    (Quad)   (Total)
    X1       -1.07453   0.00052   0.00000   0.00610   0.00386  -1.07068
    Y1        0.93001   0.00075   0.00000   0.00269   0.00104   0.93105
    Z1       -0.29245   0.00234   0.00000   0.05060   0.02617  -0.26628
    X2       -0.65231   0.00002   0.00000  -0.04091  -0.04196  -0.69426
    Y2        2.37001   0.00005   0.00000  -0.04235  -0.04246   2.32755
    Z2        1.14828  -0.00002   0.00000   0.10848   0.08229   1.23057
    X3       -1.27760   0.00008   0.00000   0.07949   0.06808  -1.20952
    Y3        1.89722   0.00001   0.00000   0.06023   0.05761   1.95483
    Z3       -2.11986  -0.00000   0.00000   0.07105   0.04675  -2.07311
    X4        1.15092  -0.00047   0.00000  -0.00674  -0.00387   1.14705
    Y4       -0.90638  -0.00076   0.00000  -0.00766  -0.00302  -0.90939
    Z4       -0.32907   0.00265   0.00000   0.04960   0.01809  -0.31097
    X5        1.42372  -0.00010   0.00000  -0.08463  -0.08545   1.33827
    Y5       -1.78011  -0.00005   0.00000  -0.07066  -0.06605  -1.84616
    Z5       -2.18601  -0.00002   0.00000   0.06651   0.03463  -2.15138
    X6        0.78114   0.00002   0.00000   0.04556   0.05757   0.83871
    Y6       -2.39539  -0.00004   0.00000   0.03821   0.04243  -2.35296
    Z6        1.06368  -0.00003   0.00000   0.11157   0.08161   1.14529
    X7        3.33661   0.00040   0.00000   0.02067   0.02163   3.35824
    Y7        0.34892   0.00054   0.00000   0.02186   0.03297   0.38188
    Z7        0.33462  -0.00250   0.00000  -0.10131  -0.14087   0.19376
    X8       -3.25627  -0.00052   0.00000  -0.01999  -0.01643  -3.27270
    Y8       -0.49325  -0.00050   0.00000  -0.01970  -0.02749  -0.52074
    Z8        0.33556  -0.00242   0.00000  -0.09765  -0.11400   0.22155
    X9       -4.71253   0.00004   0.00000  -0.00340  -0.00343  -4.71597
    Y9        0.57225  -0.00001   0.00000   0.01690   0.00497   0.57722
    Z9        0.12694   0.00000   0.00000  -0.02295  -0.03467   0.09227
         Item               Value     Threshold  Converged?
 Maximum Force            0.002647     0.000450     NO 
 RMS     Force            0.001004     0.000300     NO 
 Maximum Displacement     0.140867     0.001800     NO 
 RMS     Displacement     0.055386     0.001200     NO 
 Predicted change in Energy=-7.310662D-04
 GradGradGradGradGradGradGradGradGradGradGradGradGradGradGradGradGradGrad


 ----------------------------------------------------------------------

 Electric dipole moment (input orientation):
 (Debye = 10**-18 statcoulomb cm , SI units = C m)
                  (au)            (Debye)         (10**-30 SI)
   Tot        0.760043D+00      0.193184D+01      0.644391D+01
   x         -0.627864D+00     -0.159587D+01     -0.532325D+01
   y          0.287568D+00      0.730925D+00      0.243810D+01
   z         -0.317423D+00     -0.806809D+00     -0.269122D+01

 Dipole polarizability, Alpha (input orientation).
 (esu units = cm**3 , SI units = C**2 m**2 J**-1)
 Alpha(0;0):
               (au)            (10**-24 esu)      (10**-40 SI)
   iso        0.283071D+02      0.419468D+01      0.466721D+01
   aniso      0.520983D+01      0.772017D+00      0.858985D+00
   xx         0.314921D+02      0.466665D+01      0.519235D+01
   yx        -0.737689D+00     -0.109314D+00     -0.121629D+00
   yy         0.276089D+02      0.409122D+01      0.455210D+01
   zx        -0.223585D+00     -0.331319D-01     -0.368642D-01
   zy        -0.211900D+00     -0.314003D-01     -0.349376D-01
   zz         0.258202D+02      0.382615D+01      0.425717D+01

 ----------------------------------------------------------------------

 Dipole orientation:
     6         -0.11063920         -0.48853572          1.36167537
     1         -0.76434402         -2.42132258          0.95600890
     1          1.50689758         -0.62189214          2.65857104
     6          0.66889038          0.68560263         -1.15626170
     1          2.15173540          2.11355146         -0.93667714
     1         -1.00171474          1.57882534         -1.99583837
     9          1.53092703         -1.17593544         -2.76407204
     8         -2.07471504          1.03441731          2.36320346
     1         -2.42270487          0.47651582          4.05647193

 Electric dipole moment (dipole orientation):
 (Debye = 10**-18 statcoulomb cm , SI units = C m)
                  (au)            (Debye)         (10**-30 SI)
   Tot        0.760043D+00      0.193184D+01      0.644391D+01
   x          0.000000D+00      0.000000D+00      0.000000D+00
   y          0.000000D+00      0.000000D+00      0.000000D+00
   z          0.760043D+00      0.193184D+01      0.644391D+01

 Dipole polarizability, Alpha (dipole orientation).
 (esu units = cm**3 , SI units = C**2 m**2 J**-1)
 Alpha(0;0):
               (au)            (10**-24 esu)      (10**-40 SI)
   iso        0.283071D+02      0.419468D+01      0.466721D+01
   aniso      0.520983D+01      0.772017D+00      0.858985D+00
   xx         0.275327D+02      0.407993D+01      0.453954D+01
   yx        -0.759857D+00     -0.112599D+00     -0.125284D+00
   yy         0.270677D+02      0.401102D+01      0.446287D+01
   zx        -0.230960D+01     -0.342248D+00     -0.380802D+00
   zy        -0.201418D+00     -0.298470D-01     -0.332093D-01
   zz         0.303207D+02      0.449307D+01      0.499922D+01

 ----------------------------------------------------------------------
 Unable to Open any file for archive entry.
 1\1\GINC-COMPUTE-2-0\Freq\RB3LYP\6-31G(2df,p)\C2H5F1O1\JINGDAN2\05-Dec
 -2024\0\\# freq b3lyp/6-31g(2df,p)\\energy: -15.614184499692 gnorm: 0.
 000439253721 xtb: 6.6.1 (8d0f1dd)\\0,1\C,-0.568619,0.49214,-0.154757\H
 ,-0.345185,1.254154,0.607642\H,-0.676076,1.003966,-1.121779\C,0.609038
 ,-0.479633,-0.174135\H,0.7534,-0.941995,-1.156788\H,0.41336,-1.267586,
 0.562877\F,1.765656,0.184638,0.177075\O,-1.723144,-0.261018,0.177569\H
 ,-2.493764,0.302821,0.067174\\Version=ES64L-G16RevC.01\State=1-A\HF=-2
 54.2788906\RMSD=8.740e-09\RMSF=1.004e-03\ZeroPoint=0.0727002\Thermal=0
 .0777648\ETot=-254.2011258\HTot=-254.2001816\GTot=-254.2344234\Dipole=
 -0.6278637,0.2875682,-0.317423\DipoleDeriv=0.6262268,0.2008891,-0.0391
 795,0.284322,0.3318545,-0.0407817,-0.0636591,-0.0404449,0.4011409,-0.0
 439328,-0.0394393,-0.0214374,-0.0577039,-0.092002,-0.0791215,-0.027686
 5,-0.1135136,-0.0797531,-0.0463999,0.0259924,-0.0183038,-0.0175017,-0.
 0420337,0.086391,-0.0020682,0.1169967,-0.1483749,0.7902911,0.1574848,0
 .0742296,0.2058631,0.4524669,0.0735732,0.0988827,0.059747,0.4352974,-0
 .0258973,0.0339413,0.0343304,0.0079825,-0.0136172,-0.0610221,0.020991,
 -0.0987271,-0.1203909,-0.0015583,-0.022189,0.0020171,-0.0278948,-0.060
 0099,0.0642983,0.0096197,0.1009287,-0.0522435,-0.7457914,-0.1762567,-0
 .1014229,-0.2221436,-0.3584264,-0.0688969,-0.1316993,-0.0674712,-0.266
 58,-0.7723281,-0.2398475,0.0777593,-0.2555936,-0.4041227,-0.0111807,0.
 100208,0.0065838,-0.4910777,0.21939,0.0594249,-0.0079929,0.0826699,0.1
 858906,0.0367404,-0.0045883,0.0359008,0.3219818\Polar=31.4921275,-0.73
 76893,27.6089431,-0.2235851,-0.2118998,25.8201523\Quadrupole=-0.274313
 1,0.2117278,0.0625854,-2.807708,0.0757208,0.0820362\PG=C01 [X(C2H5F1O1
 )]\NImag=0\\0.48054826,-0.00624787,0.53797839,0.03339946,-0.00242485,0
 .58002942,-0.05411567,-0.02167244,-0.02915347,0.06737770,-0.02270406,-
 0.15778657,-0.11304274,0.03681601,0.17834948,-0.02922474,-0.11589814,-
 0.18085384,0.03214447,0.12704880,0.18600577,-0.05619373,0.01629797,-0.
 03254648,0.00266149,0.00363782,-0.00403441,0.06230986,0.01400464,-0.09
 653985,0.08920428,-0.00234946,0.01052380,-0.01916557,-0.01090493,0.108
 47855,-0.03145801,0.09344709,-0.24502662,-0.00506465,0.01015789,-0.020
 85617,0.02613875,-0.10768794,0.26229357,-0.12007842,0.06729086,0.00496
 602,0.00204629,-0.00185318,-0.00108381,-0.00040080,0.00284728,0.001849
 15,0.47468687,0.06946125,-0.14229521,-0.00102977,0.01763598,-0.0180047
 4,-0.00162357,0.01377265,-0.01083928,-0.00308103,0.01066890,0.54118472
 ,0.00039449,0.00129993,-0.08435134,0.01847390,-0.02089084,-0.00172214,
 -0.02325701,0.01943414,0.00180939,-0.03412129,-0.00577107,0.60883798,-
 0.00036140,0.01255085,0.02276824,-0.00399975,0.00299439,0.00009335,0.0
 0102957,-0.00083189,-0.00048133,-0.05783445,0.01909748,0.04553688,0.06
 602374,0.00456373,-0.00844003,-0.01963172,0.00250340,-0.00234771,-0.00
 034403,-0.00097037,0.00107283,0.00021853,0.01708153,-0.09074349,-0.084
 68051,-0.01327271,0.09993998,-0.00198540,0.00320366,0.00160065,-0.0004
 8349,0.00085630,0.00124536,0.00038541,-0.00020640,0.00146780,0.0396910
 7,-0.09020910,-0.26180241,-0.03437520,0.10396705,0.27924427,0.00238906
 ,0.01813122,-0.01713958,0.00030140,-0.00016835,0.00023088,-0.00385025,
 0.00260727,0.00058858,-0.05320233,-0.02020830,0.02334639,0.00298615,-0
 .00266610,0.00531643,0.06790358,-0.00008385,-0.01755953,0.02008459,-0.
 00030960,0.00058106,-0.00027871,0.00305756,-0.00232057,-0.00089315,-0.
 02310170,-0.17443668,0.11936629,0.00350295,0.01062597,-0.00902432,0.03
 599503,0.19496629,0.00092472,-0.00012103,0.00020504,-0.00023315,0.0003
 0735,0.00043916,0.00010992,0.00018441,0.00127594,0.02809037,0.12540861
 ,-0.18108206,0.00352297,0.02042714,-0.01855494,-0.02816142,-0.13421129
 ,0.18295418,-0.03846518,-0.02591320,-0.01021473,0.00216550,-0.00223224
 ,0.00081016,-0.00069937,0.00186667,-0.00152511,-0.20519035,-0.08303141
 ,-0.03929039,-0.00810236,-0.00898501,-0.01020266,-0.01883172,-0.016187
 58,-0.00373247,0.28108755,0.00796480,0.01098603,0.00174069,-0.00064667
 ,0.00374831,0.00152374,-0.00118509,0.00081135,0.00018619,-0.08296816,-
 0.11602374,-0.02548532,-0.02320082,-0.01042341,-0.00840476,-0.03333671
 ,-0.01477874,-0.01104942,0.12833291,0.12556386,-0.00434619,-0.00421496
 ,0.00217105,0.00022025,0.00187030,0.00108056,0.00142602,-0.00004837,0.
 00041285,-0.04332949,-0.02645293,-0.08271771,-0.03561930,-0.01993067,-
 0.00357535,0.01623540,0.00627899,0.01415976,0.06500334,0.04153385,0.06
 757322,-0.18315678,-0.08401412,0.03265398,-0.01765830,-0.01720440,0.00
 191773,-0.00758599,-0.00795405,0.00938357,-0.03660272,-0.02212229,0.00
 787432,0.00025729,0.00144043,0.00145001,0.00204050,-0.00213512,-0.0005
 4045,-0.01014406,0.00441951,0.00024673,0.58893027,-0.03857989,-0.13620
 113,0.02569588,-0.03105741,-0.01495035,0.00891414,-0.02305543,-0.01141
 331,0.00692925,0.01142148,0.01400178,-0.00469932,-0.00076677,0.0001218
 9,-0.00011278,-0.00027722,0.00236258,-0.00045666,0.00755002,-0.0004563
 9,0.00146231,-0.12754837,0.35950702,0.01948189,0.03018611,-0.07243541,
 -0.01510739,-0.00710561,0.01435673,0.03136332,0.01916888,-0.00215911,0
 .00285565,0.00028327,0.00124389,-0.00118185,0.00033741,0.00033490,-0.0
 0046053,-0.00100050,0.00038263,-0.00156338,0.00050918,0.00061749,-0.00
 049354,-0.08718203,0.07088695,-0.03056614,0.02357674,-0.00473344,0.001
 22135,0.00071402,-0.00085363,0.00272921,0.00071446,0.00056905,-0.00342
 409,-0.00527427,0.00104271,0.00000121,0.00030511,0.00020383,0.00026361
 ,-0.00073769,0.00001950,-0.00182001,0.00062023,0.00016325,-0.33608022,
 0.20231359,-0.03489418,0.36767507,-0.02837876,0.00985789,-0.00059636,-
 0.00091981,-0.00011328,-0.00017666,-0.00065018,0.00022649,0.00072318,-
 0.00138700,-0.00284336,0.00142670,-0.00007348,0.00019397,-0.00006963,-
 0.00007684,0.00055963,-0.00048910,-0.00140016,0.00057272,-0.00049852,0
 .25511842,-0.21297209,0.04480328,-0.22223219,0.20451804,0.01281379,-0.
 00547781,-0.00133896,-0.00079647,0.00079855,0.00030456,0.00041448,-0.0
 0088342,0.00078235,0.00108233,0.00247560,-0.00021561,-0.00026375,-0.00
 036321,0.00003971,0.00004384,-0.00032189,0.00022028,0.00071525,-0.0005
 5417,0.00027813,-0.05249236,0.04944922,-0.01322807,0.03848290,-0.04512
 287,0.01315761\\-0.00051821,-0.00075131,-0.00233954,-0.00002260,-0.000
 05270,0.00002310,-0.00008234,-0.00001452,0.00000407,0.00046517,0.00076
 194,-0.00264729,0.00009555,0.00004630,0.00001720,-0.00001613,0.0000436
 5,0.00002713,-0.00040043,-0.00054403,0.00249780,0.00051883,0.00049600,
 0.00241984,-0.00003983,0.00001466,-0.00000231\\\@
 The archive entry for this job was punched.


 THERE ONCE WAS A GIRL NAMED IRENE,
 WHO LIVED ON DISTILLED KEROSENE,
      BUT SHE STARTED ABSORBIN'
      A NEW HYDROCARBON,
 AND SINCE THEN HAS NEVER BENZENE.
 Job cpu time:       0 days  0 hours  7 minutes 11.5 seconds.
 Elapsed time:       0 days  0 hours  0 minutes 55.0 seconds.
 File lengths (MBytes):  RWF=     21 Int=      0 D2E=      0 Chk=      2 Scr=      1
 Normal termination of Gaussian 16 at Thu Dec  5 18:23:59 2024.
