 Entering Gaussian System, Link 0=g16
 Input=rotation_std21.gjf
 Output=rotation_std21.log
 Initial command:
 /share/apps/gaussian/g16/l1.exe "/scratch/jingdan2/247449/Gau-174399.inp" -scrdir="/scratch/jingdan2/247449/"
 Entering Link 1 = /share/apps/gaussian/g16/l1.exe PID=    174407.
  
 Copyright (c) 1988-2019, Gaussian, Inc.  All Rights Reserved.
  
 This is part of the Gaussian(R) 16 program.  It is based on
 the Gaussian(R) 09 system (copyright 2009, Gaussian, Inc.),
 the Gaussian(R) 03 system (copyright 2003, Gaussian, Inc.),
 the Gaussian(R) 98 system (copyright 1998, Gaussian, Inc.),
 the Gaussian(R) 94 system (copyright 1995, Gaussian, Inc.),
 the Gaussian 92(TM) system (copyright 1992, Gaussian, Inc.),
 the Gaussian 90(TM) system (copyright 1990, Gaussian, Inc.),
 the Gaussian 88(TM) system (copyright 1988, Gaussian, Inc.),
 the Gaussian 86(TM) system (copyright 1986, Carnegie Mellon
 University), and the Gaussian 82(TM) system (copyright 1983,
 Carnegie Mellon University). Gaussian is a federally registered
 trademark of Gaussian, Inc.
  
 This software contains proprietary and confidential information,
 including trade secrets, belonging to Gaussian, Inc.
  
 This software is provided under written license and may be
 used, copied, transmitted, or stored only in accord with that
 written license.
  
 The following legend is applicable only to US Government
 contracts under FAR:
  
                    RESTRICTED RIGHTS LEGEND
  
 Use, reproduction and disclosure by the US Government is
 subject to restrictions as set forth in subparagraphs (a)
 and (c) of the Commercial Computer Software - Restricted
 Rights clause in FAR 52.227-19.
  
 Gaussian, Inc.
 340 Quinnipiac St., Bldg. 40, Wallingford CT 06492
  
  
 ---------------------------------------------------------------
 Warning -- This program may not be used in any manner that
 competes with the business of Gaussian, Inc. or will provide
 assistance to any competitor of Gaussian, Inc.  The licensee
 of this program is prohibited from giving any competitor of
 Gaussian, Inc. access to this program.  By using this program,
 the user acknowledges that Gaussian, Inc. is engaged in the
 business of creating and licensing software in the field of
 computational chemistry and represents and warrants to the
 licensee that it is not a competitor of Gaussian, Inc. and that
 it will not use this program in any manner prohibited above.
 ---------------------------------------------------------------
  

 Cite this work as:
 Gaussian 16, Revision C.01,
 M. J. Frisch, G. W. Trucks, H. B. Schlegel, G. E. Scuseria, 
 M. A. Robb, J. R. Cheeseman, G. Scalmani, V. Barone, 
 G. A. Petersson, H. Nakatsuji, X. Li, M. Caricato, A. V. Marenich, 
 J. Bloino, B. G. Janesko, R. Gomperts, B. Mennucci, H. P. Hratchian, 
 J. V. Ortiz, A. F. Izmaylov, J. L. Sonnenberg, D. Williams-Young, 
 F. Ding, F. Lipparini, F. Egidi, J. Goings, B. Peng, A. Petrone, 
 T. Henderson, D. Ranasinghe, V. G. Zakrzewski, J. Gao, N. Rega, 
 G. Zheng, W. Liang, M. Hada, M. Ehara, K. Toyota, R. Fukuda, 
 J. Hasegawa, M. Ishida, T. Nakajima, Y. Honda, O. Kitao, H. Nakai, 
 T. Vreven, K. Throssell, J. A. Montgomery, Jr., J. E. Peralta, 
 F. Ogliaro, M. J. Bearpark, J. J. Heyd, E. N. Brothers, K. N. Kudin, 
 V. N. Staroverov, T. A. Keith, R. Kobayashi, J. Normand, 
 K. Raghavachari, A. P. Rendell, J. C. Burant, S. S. Iyengar, 
 J. Tomasi, M. Cossi, J. M. Millam, M. Klene, C. Adamo, R. Cammi, 
 J. W. Ochterski, R. L. Martin, K. Morokuma, O. Farkas, 
 J. B. Foresman, and D. J. Fox, Gaussian, Inc., Wallingford CT, 2019.
 
 ******************************************
 Gaussian 16:  ES64L-G16RevC.01  3-Jul-2019
                 5-Dec-2024 
 ******************************************
 %nprocshared=8
 Will use up to    8 processors via shared memory.
 %mem=8GB
 -------------------------
 # freq b3lyp/6-31g(2df,p)
 -------------------------
 1/10=4,30=1,38=1/1,3;
 2/12=2,17=6,18=5,40=1/2;
 3/5=1,6=6,7=104,11=2,25=1,30=1,71=2,74=-5,140=1/1,2,3;
 4//1;
 5/5=2,38=5,98=1/2;
 8/6=4,10=90,11=11/1;
 11/6=1,8=1,9=11,15=111,16=1/1,2,10;
 10/6=1/2;
 6/7=2,8=2,9=2,10=2,28=1/1;
 7/8=1,10=1,25=1/1,2,3,16;
 1/10=4,30=1/3;
 99//99;
 -------------------------------------------------------------------
 energy: -15.614184499692 gnorm: 0.000439253721 xtb: 6.6.1 (8d0f1dd)
 -------------------------------------------------------------------
 Symbolic Z-matrix:
 Charge =  0 Multiplicity = 1
 C                    -0.72659   0.64975  -0.09275 
 H                    -1.14036   1.36895   0.63089 
 H                    -0.95827   1.0326   -1.0997 
 C                     0.80534   0.58874   0.09656 
 H                     1.07476   0.90437   1.11249 
 H                     1.30397   1.25862  -0.61433 
 F                     1.27409  -0.68844  -0.07227 
 O                    -1.25125  -0.65152   0.07183 
 H                    -2.20937  -0.58738   0.02359 
 

 GradGradGradGradGradGradGradGradGradGradGradGradGradGradGradGradGradGrad
 Berny optimization.
 Initialization pass.
 Trust Radius=3.00D-01 FncErr=1.00D-07 GrdErr=1.00D-07 EigMax=2.50D+02 EigMin=1.00D-04
 Number of steps in this run=      2 maximum allowed number of steps=      2.
 GradGradGradGradGradGradGradGradGradGradGradGradGradGradGradGradGradGrad

                          Input orientation:                          
 ---------------------------------------------------------------------
 Center     Atomic      Atomic             Coordinates (Angstroms)
 Number     Number       Type             X           Y           Z
 ---------------------------------------------------------------------
      1          6           0       -0.726593    0.649754   -0.092752
      2          1           0       -1.140363    1.368949    0.630886
      3          1           0       -0.958273    1.032605   -1.099703
      4          6           0        0.805337    0.588738    0.096559
      5          1           0        1.074759    0.904367    1.112492
      6          1           0        1.303967    1.258623   -0.614330
      7          9           0        1.274088   -0.688438   -0.072272
      8          8           0       -1.251246   -0.651522    0.071833
      9          1           0       -2.209374   -0.587379    0.023594
 ---------------------------------------------------------------------
                    Distance matrix (angstroms):
                    1          2          3          4          5
     1  C    0.000000
     2  H    1.100954   0.000000
     3  H    1.101908   1.772349   0.000000
     4  C    1.544788   2.163327   2.176782   0.000000
     5  H    2.182272   2.313989   3.007236   1.097420   0.000000
     6  H    2.183103   2.745448   2.324737   1.096695   1.777624
     7  F    2.407052   3.249130   3.000173   1.370916   1.995100
     8  O    1.412681   2.099319   2.072345   2.401747   2.985642
     9  H    1.934599   2.310586   2.334823   3.236828   3.767829
                    6          7          8          9
     6  H    0.000000
     7  F    2.021328   0.000000
     8  O    3.263217   2.529712   0.000000
     9  H    4.019731   3.486246   0.961484   0.000000
 Stoichiometry    C2H5FO
 Framework group  C1[X(C2H5FO)]
 Deg. of freedom    21
 Full point group                 C1      NOp   1
 Largest Abelian subgroup         C1      NOp   1
 Largest concise Abelian subgroup C1      NOp   1
                         Standard orientation:                         
 ---------------------------------------------------------------------
 Center     Atomic      Atomic             Coordinates (Angstroms)
 Number     Number       Type             X           Y           Z
 ---------------------------------------------------------------------
      1          6           0       -0.726593    0.649754   -0.092752
      2          1           0       -1.140363    1.368949    0.630886
      3          1           0       -0.958273    1.032605   -1.099703
      4          6           0        0.805337    0.588738    0.096559
      5          1           0        1.074759    0.904367    1.112492
      6          1           0        1.303967    1.258623   -0.614330
      7          9           0        1.274088   -0.688438   -0.072272
      8          8           0       -1.251246   -0.651522    0.071833
      9          1           0       -2.209374   -0.587379    0.023594
 ---------------------------------------------------------------------
 Rotational constants (GHZ):          14.8759329           6.0452327           4.5819288
 Standard basis: 6-31G(2df,p) (6D, 7F)
 There are   149 symmetry adapted cartesian basis functions of A   symmetry.
 There are   137 symmetry adapted basis functions of A   symmetry.
   137 basis functions,   211 primitive gaussians,   149 cartesian basis functions
    17 alpha electrons       17 beta electrons
       nuclear repulsion energy       131.1660206839 Hartrees.
 NAtoms=    9 NActive=    9 NUniq=    9 SFac= 1.00D+00 NAtFMM=   60 NAOKFM=F Big=F
 Integral buffers will be    131072 words long.
 Raffenetti 2 integral format.
 Two-electron integral symmetry is turned on.
 One-electron integrals computed using PRISM.
 NBasis=   137 RedAO= T EigKep=  1.24D-03  NBF=   137
 NBsUse=   137 1.00D-06 EigRej= -1.00D+00 NBFU=   137
 ExpMin= 1.61D-01 ExpMax= 7.00D+03 ExpMxC= 1.05D+03 IAcc=3 IRadAn=         5 AccDes= 0.00D+00
 Harris functional with IExCor=  402 and IRadAn=       5 diagonalized for initial guess.
 HarFok:  IExCor=  402 AccDes= 0.00D+00 IRadAn=         5 IDoV= 1 UseB2=F ITyADJ=14
 ICtDFT=  3500011 ScaDFX=  1.000000  1.000000  1.000000  1.000000
 FoFCou: FMM=F IPFlag=           0 FMFlag=      100000 FMFlg1=           0
         NFxFlg=           0 DoJE=T BraDBF=F KetDBF=T FulRan=T
         wScrn=  0.000000 ICntrl=       500 IOpCl=  0 I1Cent=   200000004 NGrid=           0
         NMat0=    1 NMatS0=      1 NMatT0=    0 NMatD0=    1 NMtDS0=    0 NMtDT0=    0
 Petite list used in FoFCou.
 Keep R1 ints in memory in canonical form, NReq=52495207.
 Requested convergence on RMS density matrix=1.00D-08 within 128 cycles.
 Requested convergence on MAX density matrix=1.00D-06.
 Requested convergence on             energy=1.00D-06.
 No special actions if energy rises.
 Integral accuracy reduced to 1.0D-05 until final iterations.
 Initial convergence to 1.0D-05 achieved.  Increase integral accuracy.
 SCF Done:  E(RB3LYP) =  -254.272314028     A.U. after   12 cycles
            NFock= 12  Conv=0.47D-08     -V/T= 2.0064
 DoSCS=F DFT=T ScalE2(SS,OS)=  1.000000  1.000000
 Range of M.O.s used for correlation:     1   137
 NBasis=   137 NAE=    17 NBE=    17 NFC=     0 NFV=     0
 NROrb=    137 NOA=    17 NOB=    17 NVA=   120 NVB=   120

 **** Warning!!: The largest alpha MO coefficient is  0.18590290D+02

 Symmetrizing basis deriv contribution to polar:
 IMax=3 JMax=2 DiffMx= 0.00D+00
 G2DrvN: will do    10 centers at a time, making    1 passes.
 Calling FoFCou, ICntrl=  3107 FMM=F I1Cent=   0 AccDes= 0.00D+00.
 End of G2Drv F.D. properties file   721 does not exist.
 End of G2Drv F.D. properties file   722 does not exist.
 End of G2Drv F.D. properties file   788 does not exist.
          IDoAtm=111111111
          Differentiating once with respect to electric field.
                with respect to dipole field.
          Differentiating once with respect to nuclear coordinates.
 Keep R1 ints in memory in canonical form, NReq=52475930.
          There are    30 degrees of freedom in the 1st order CPHF.  IDoFFX=6 NUNeed=     3.
     27 vectors produced by pass  0 Test12= 6.80D-15 3.33D-09 XBig12= 1.57D+01 1.44D+00.
 AX will form    27 AO Fock derivatives at one time.
     27 vectors produced by pass  1 Test12= 6.80D-15 3.33D-09 XBig12= 1.30D+00 2.07D-01.
     27 vectors produced by pass  2 Test12= 6.80D-15 3.33D-09 XBig12= 1.52D-02 3.80D-02.
     27 vectors produced by pass  3 Test12= 6.80D-15 3.33D-09 XBig12= 4.84D-05 1.07D-03.
     27 vectors produced by pass  4 Test12= 6.80D-15 3.33D-09 XBig12= 6.84D-08 4.50D-05.
     15 vectors produced by pass  5 Test12= 6.80D-15 3.33D-09 XBig12= 5.53D-11 1.18D-06.
      3 vectors produced by pass  6 Test12= 6.80D-15 3.33D-09 XBig12= 3.93D-14 3.09D-08.
 InvSVY:  IOpt=1 It=  1 EMax= 6.22D-15
 Solved reduced A of dimension   153 with    30 vectors.
 Isotropic polarizability for W=    0.000000       28.40 Bohr**3.
 End of Minotr F.D. properties file   721 does not exist.
 End of Minotr F.D. properties file   722 does not exist.
 End of Minotr F.D. properties file   788 does not exist.

 **********************************************************************

            Population analysis using the SCF Density.

 **********************************************************************

 Orbital symmetries:
       Occupied  (A) (A) (A) (A) (A) (A) (A) (A) (A) (A) (A) (A)
                 (A) (A) (A) (A) (A)
       Virtual   (A) (A) (A) (A) (A) (A) (A) (A) (A) (A) (A) (A)
                 (A) (A) (A) (A) (A) (A) (A) (A) (A) (A) (A) (A)
                 (A) (A) (A) (A) (A) (A) (A) (A) (A) (A) (A) (A)
                 (A) (A) (A) (A) (A) (A) (A) (A) (A) (A) (A) (A)
                 (A) (A) (A) (A) (A) (A) (A) (A) (A) (A) (A) (A)
                 (A) (A) (A) (A) (A) (A) (A) (A) (A) (A) (A) (A)
                 (A) (A) (A) (A) (A) (A) (A) (A) (A) (A) (A) (A)
                 (A) (A) (A) (A) (A) (A) (A) (A) (A) (A) (A) (A)
                 (A) (A) (A) (A) (A) (A) (A) (A) (A) (A) (A) (A)
                 (A) (A) (A) (A) (A) (A) (A) (A) (A) (A) (A) (A)
 The electronic state is 1-A.
 Alpha  occ. eigenvalues --  -24.66167 -19.13834 -10.25334 -10.23580  -1.17855
 Alpha  occ. eigenvalues --   -1.02045  -0.74487  -0.61778  -0.52744  -0.49672
 Alpha  occ. eigenvalues --   -0.46693  -0.44595  -0.42278  -0.35497  -0.32730
 Alpha  occ. eigenvalues --   -0.32080  -0.26807
 Alpha virt. eigenvalues --    0.06158   0.10963   0.12486   0.13266   0.16455
 Alpha virt. eigenvalues --    0.21258   0.22499   0.25433   0.42327   0.47675
 Alpha virt. eigenvalues --    0.49294   0.50292   0.53218   0.60954   0.65537
 Alpha virt. eigenvalues --    0.68314   0.71307   0.72753   0.74683   0.78396
 Alpha virt. eigenvalues --    0.81519   0.84111   0.88138   0.88625   0.90165
 Alpha virt. eigenvalues --    0.93904   0.95246   1.01801   1.04838   1.08452
 Alpha virt. eigenvalues --    1.11150   1.13616   1.24475   1.27742   1.35660
 Alpha virt. eigenvalues --    1.36989   1.40795   1.45570   1.50703   1.53375
 Alpha virt. eigenvalues --    1.58872   1.62584   1.64915   1.70722   1.76136
 Alpha virt. eigenvalues --    1.93881   1.99093   2.08329   2.11493   2.17111
 Alpha virt. eigenvalues --    2.32656   2.37590   2.40750   2.48115   2.52833
 Alpha virt. eigenvalues --    2.56431   2.62738   2.64764   2.76147   2.83411
 Alpha virt. eigenvalues --    2.88720   2.92020   2.96205   3.03013   3.05066
 Alpha virt. eigenvalues --    3.10677   3.29400   3.32516   3.34328   3.38495
 Alpha virt. eigenvalues --    3.43397   3.50243   3.51263   3.67330   3.68837
 Alpha virt. eigenvalues --    3.85833   3.88035   3.96470   4.13231   4.16721
 Alpha virt. eigenvalues --    4.23318   4.24483   4.32709   4.38496   4.40746
 Alpha virt. eigenvalues --    4.43457   4.45858   4.50156   4.54540   4.59312
 Alpha virt. eigenvalues --    4.61780   4.62821   4.67040   4.73118   4.75002
 Alpha virt. eigenvalues --    4.77662   4.79525   4.85144   4.98396   5.23531
 Alpha virt. eigenvalues --    5.30472   5.41565   5.47116   5.55396   5.84181
 Alpha virt. eigenvalues --    5.93982   6.02209   6.05858   6.67610   6.68746
 Alpha virt. eigenvalues --    6.80385   6.81450   7.03177   7.27631   7.32946
 Alpha virt. eigenvalues --    7.35128   9.55675  10.91428  11.90369  13.14417
          Condensed to atoms (all electrons):
               1          2          3          4          5          6
     1  C    4.856304   0.353736   0.363823   0.338014  -0.039905  -0.044999
     2  H    0.353736   0.678130  -0.060942  -0.027284  -0.008103   0.005643
     3  H    0.363823  -0.060942   0.677067  -0.033148   0.006306  -0.007711
     4  C    0.338014  -0.027284  -0.033148   4.678494   0.360951   0.360147
     5  H   -0.039905  -0.008103   0.006306   0.360951   0.659452  -0.055342
     6  H   -0.044999   0.005643  -0.007711   0.360147  -0.055342   0.660424
     7  F   -0.038405   0.001496   0.000114   0.396442  -0.024509  -0.021595
     8  O    0.358778  -0.028952  -0.034415  -0.033764  -0.000526   0.001617
     9  H   -0.050328  -0.005924  -0.002503   0.006768  -0.000206  -0.000199
               7          8          9
     1  C   -0.038405   0.358778  -0.050328
     2  H    0.001496  -0.028952  -0.005924
     3  H    0.000114  -0.034415  -0.002503
     4  C    0.396442  -0.033764   0.006768
     5  H   -0.024509  -0.000526  -0.000206
     6  H   -0.021595   0.001617  -0.000199
     7  F    8.819219   0.003051   0.000084
     8  O    0.003051   7.826878   0.305975
     9  H    0.000084   0.305975   0.455661
 Mulliken charges:
               1
     1  C   -0.097018
     2  H    0.092200
     3  H    0.091409
     4  C   -0.046620
     5  H    0.101882
     6  H    0.102014
     7  F   -0.135898
     8  O   -0.398643
     9  H    0.290672
 Sum of Mulliken charges =  -0.00000
 Mulliken charges with hydrogens summed into heavy atoms:
               1
     1  C    0.086592
     4  C    0.157277
     7  F   -0.135898
     8  O   -0.107971
 APT charges:
               1
     1  C    0.469485
     2  H   -0.080872
     3  H   -0.095523
     4  C    0.580800
     5  H   -0.065503
     6  H   -0.054816
     7  F   -0.446171
     8  O   -0.548055
     9  H    0.240655
 Sum of APT charges =   0.00000
 APT charges with hydrogens summed into heavy atoms:
               1
     1  C    0.293090
     4  C    0.460481
     7  F   -0.446171
     8  O   -0.307400
 Electronic spatial extent (au):  <R**2>=            284.0864
 Charge=             -0.0000 electrons
 Dipole moment (field-independent basis, Debye):
    X=             -1.5666    Y=              2.4052    Z=             -0.0120  Tot=              2.8704
 Quadrupole moment (field-independent basis, Debye-Ang):
   XX=            -19.7939   YY=            -24.2894   ZZ=            -23.2715
   XY=              1.3206   XZ=              0.3330   YZ=              0.0778
 Traceless Quadrupole moment (field-independent basis, Debye-Ang):
   XX=              2.6577   YY=             -1.8378   ZZ=             -0.8199
   XY=              1.3206   XZ=              0.3330   YZ=              0.0778
 Octapole moment (field-independent basis, Debye-Ang**2):
  XXX=            -11.8825  YYY=             -7.0682  ZZZ=             -0.2077  XYY=              1.3101
  XXY=             -3.0798  XXZ=             -0.0870  XZZ=              2.0311  YZZ=             -1.7443
  YYZ=             -0.0640  XYZ=             -0.4187
 Hexadecapole moment (field-independent basis, Debye-Ang**3):
 XXXX=           -154.7419 YYYY=            -95.2589 ZZZZ=            -34.4200 XXXY=              7.7783
 XXXZ=             -1.3181 YYYX=             -2.3995 YYYZ=              0.3383 ZZZX=             -0.3688
 ZZZY=              0.4322 XXYY=            -46.3480 XXZZ=            -37.1848 YYZZ=            -21.2126
 XXYZ=              0.0129 YYXZ=             -1.0181 ZZXY=             -1.0131
 N-N= 1.311660206839D+02 E-N=-8.621028420518D+02  KE= 2.526624920791D+02
  Exact polarizability:      30.939       1.285      28.347       0.216      -0.225      25.921
 Approx polarizability:      37.776       0.289      39.974      -0.146      -0.239      35.134
 Calling FoFJK, ICntrl=    100127 FMM=F ISym2X=0 I1Cent= 0 IOpClX= 0 NMat=1 NMatS=1 NMatT=0.
 Full mass-weighted force constant matrix:
 Low frequencies --- -159.9881  -20.7983  -10.5734   -0.0006    0.0007    0.0010
 Low frequencies ---   16.2952  236.4128  286.8399
 ******    1 imaginary frequencies (negative Signs) ****** 
 Diagonal vibrational polarizability:
        2.7577634       6.3206688      56.3142657
 Harmonic frequencies (cm**-1), IR intensities (KM/Mole), Raman scattering
 activities (A**4/AMU), depolarization ratios for plane and unpolarized
 incident light, reduced masses (AMU), force constants (mDyne/A),
 and normal coordinates:
                      1                      2                      3
                      A                      A                      A
 Frequencies --   -159.9606               236.4125               286.7407
 Red. masses --      2.0402                 1.0884                 8.1769
 Frc consts  --      0.0308                 0.0358                 0.3961
 IR Inten    --      0.3599               118.2469                 0.8759
  Atom  AN      X      Y      Z        X      Y      Z        X      Y      Z
     1   6     0.03  -0.03  -0.14     0.00  -0.00  -0.03    -0.05  -0.10   0.07
     2   1    -0.05   0.19  -0.41    -0.01  -0.02  -0.02     0.17  -0.06   0.17
     3   1     0.22  -0.31  -0.29     0.01   0.02  -0.02    -0.07   0.07   0.14
     4   6    -0.03  -0.03   0.15    -0.00  -0.00   0.02     0.02  -0.09  -0.07
     5   1    -0.25  -0.31   0.29    -0.04  -0.02   0.03     0.06   0.08  -0.14
     6   1     0.07   0.19   0.43     0.02   0.01   0.05    -0.20  -0.03  -0.18
     7   9     0.04   0.03  -0.11     0.00   0.00   0.01     0.44   0.04   0.03
     8   8    -0.04   0.03   0.12    -0.00  -0.01  -0.07    -0.47   0.06  -0.03
     9   1    -0.03   0.04  -0.00    -0.04   0.14   0.98    -0.44   0.40  -0.07
                      4                      5                      6
                      A                      A                      A
 Frequencies --    584.4004               862.6986               905.3369
 Red. masses --      3.9931                 1.2950                 3.1085
 Frc consts  --      0.8035                 0.5679                 1.5011
 IR Inten    --     24.2639                 8.8678                 8.2100
  Atom  AN      X      Y      Z        X      Y      Z        X      Y      Z
     1   6     0.22  -0.18   0.05    -0.07   0.03   0.07    -0.20   0.15  -0.06
     2   1     0.04  -0.09  -0.15    -0.41   0.21  -0.30    -0.38   0.00  -0.03
     3   1     0.43  -0.31  -0.05     0.36  -0.23  -0.14    -0.30   0.07  -0.06
     4   6     0.20   0.15   0.05    -0.01  -0.00   0.09     0.27   0.13   0.02
     5   1     0.45   0.28  -0.05     0.43   0.21  -0.10     0.14  -0.07   0.12
     6   1     0.04   0.07  -0.16    -0.32  -0.17  -0.28     0.62   0.04   0.18
     7   9    -0.17   0.10  -0.02     0.03  -0.04  -0.03     0.02  -0.07  -0.01
     8   8    -0.17  -0.12  -0.02     0.02   0.03  -0.03    -0.07  -0.10   0.03
     9   1    -0.14   0.35  -0.06     0.01  -0.14   0.05    -0.09  -0.33   0.03
                      7                      8                      9
                      A                      A                      A
 Frequencies --   1104.4393              1118.0105              1169.1296
 Red. masses --      4.2114                 4.4110                 1.8326
 Frc consts  --      3.0267                 3.2484                 1.4759
 IR Inten    --     13.2787               148.1043                18.1199
  Atom  AN      X      Y      Z        X      Y      Z        X      Y      Z
     1   6     0.08   0.29   0.01     0.16   0.23   0.09    -0.05  -0.05   0.17
     2   1     0.31   0.51  -0.11    -0.05   0.35  -0.16    -0.07   0.38  -0.26
     3   1     0.22   0.09  -0.08     0.17  -0.14  -0.03     0.10  -0.54  -0.05
     4   6     0.01  -0.29  -0.02    -0.20   0.24  -0.07     0.05  -0.02  -0.16
     5   1     0.10  -0.13  -0.08    -0.29  -0.01   0.01    -0.21  -0.41   0.04
     6   1     0.06  -0.37  -0.08    -0.10   0.34   0.12     0.22   0.27   0.24
     7   9    -0.03   0.18   0.02     0.07  -0.18  -0.00    -0.01   0.03   0.04
     8   8    -0.06  -0.20   0.01    -0.03  -0.20   0.00     0.01   0.05  -0.06
     9   1    -0.08  -0.35   0.04     0.01   0.55  -0.08     0.00  -0.11   0.02
                     10                     11                     12
                      A                      A                      A
 Frequencies --   1225.7313              1282.9862              1300.2373
 Red. masses --      1.1150                 1.1143                 1.1140
 Frc consts  --      0.9870                 1.0807                 1.1097
 IR Inten    --     14.1767                 7.6338                 9.4441
  Atom  AN      X      Y      Z        X      Y      Z        X      Y      Z
     1   6    -0.01   0.02   0.02     0.03   0.00  -0.01    -0.02   0.03  -0.05
     2   1    -0.58  -0.28  -0.02    -0.32  -0.30   0.06    -0.10  -0.07   0.01
     3   1     0.06  -0.02  -0.01     0.63   0.42   0.00    -0.22   0.00  -0.02
     4   6    -0.01  -0.06  -0.02    -0.01   0.01  -0.07     0.03  -0.04  -0.02
     5   1    -0.15   0.02  -0.01    -0.00  -0.22  -0.01     0.48  -0.46  -0.01
     6   1     0.30  -0.29  -0.01    -0.05   0.20   0.08    -0.44   0.40   0.05
     7   9     0.00   0.04  -0.01    -0.00  -0.00   0.02    -0.01   0.01   0.03
     8   8     0.03  -0.01   0.02    -0.02   0.01   0.03     0.02  -0.02   0.01
     9   1     0.07   0.61  -0.07    -0.04  -0.35   0.05     0.04   0.36  -0.05
                     13                     14                     15
                      A                      A                      A
 Frequencies --   1433.6356              1470.0378              1514.8259
 Red. masses --      1.2625                 1.4209                 1.0859
 Frc consts  --      1.5289                 1.8091                 1.4681
 IR Inten    --     15.3245                 0.4912                 1.6232
  Atom  AN      X      Y      Z        X      Y      Z        X      Y      Z
     1   6    -0.05  -0.04  -0.01     0.17   0.03   0.00    -0.02   0.04  -0.01
     2   1     0.27   0.08   0.04    -0.43  -0.25  -0.07     0.06  -0.20   0.24
     3   1     0.17   0.06  -0.02    -0.55  -0.27   0.06     0.10  -0.29  -0.14
     4   6    -0.12   0.06  -0.01    -0.07   0.01   0.00    -0.03  -0.07  -0.02
     5   1     0.60  -0.33  -0.07     0.24  -0.15  -0.03     0.23   0.53  -0.25
     6   1     0.53  -0.30   0.10     0.13  -0.11   0.03     0.16   0.36   0.48
     7   9     0.01   0.01   0.01     0.01   0.00   0.00    -0.00  -0.01  -0.00
     8   8     0.01  -0.00   0.00    -0.04   0.04  -0.01     0.00   0.01  -0.00
     9   1     0.01   0.08  -0.01    -0.06  -0.46   0.05     0.00  -0.01   0.00
                     16                     17                     18
                      A                      A                      A
 Frequencies --   1530.1440              2964.3793              2991.3976
 Red. masses --      1.0784                 1.0588                 1.1010
 Frc consts  --      1.4876                 5.4819                 5.8045
 IR Inten    --      1.4690                57.2056                35.0392
  Atom  AN      X      Y      Z        X      Y      Z        X      Y      Z
     1   6     0.02  -0.06   0.01    -0.03   0.05  -0.04     0.02  -0.03  -0.08
     2   1    -0.18   0.36  -0.47     0.17  -0.30  -0.34    -0.33   0.54   0.56
     3   1    -0.21   0.53   0.26     0.17  -0.28   0.80     0.11  -0.16   0.41
     4   6    -0.01  -0.04  -0.01    -0.00  -0.01   0.00     0.01   0.00   0.02
     5   1     0.13   0.27  -0.13    -0.00   0.00   0.01    -0.06  -0.08  -0.26
     6   1     0.11   0.17   0.26     0.04   0.06  -0.07     0.01   0.00   0.00
     7   9    -0.00  -0.00  -0.00     0.00  -0.00  -0.00    -0.00   0.00   0.00
     8   8     0.00  -0.01   0.00     0.00   0.00  -0.00    -0.00  -0.00   0.00
     9   1     0.01   0.04  -0.00     0.00   0.01  -0.00     0.00  -0.00   0.01
                     19                     20                     21
                      A                      A                      A
 Frequencies --   3021.2650              3064.9988              3834.3221
 Red. masses --      1.0578                 1.1089                 1.0664
 Frc consts  --      5.6891                 6.1375                 9.2376
 IR Inten    --     59.6366                62.6034                24.1371
  Atom  AN      X      Y      Z        X      Y      Z        X      Y      Z
     1   6     0.01  -0.01  -0.01     0.00  -0.00  -0.02    -0.00   0.00  -0.00
     2   1    -0.09   0.13   0.14    -0.05   0.08   0.08     0.00   0.00  -0.00
     3   1     0.01  -0.01   0.03     0.03  -0.05   0.14     0.00   0.00  -0.00
     4   6    -0.04  -0.05  -0.02     0.02   0.02  -0.09     0.00   0.00   0.00
     5   1     0.17   0.20   0.70     0.16   0.17   0.56     0.00  -0.00  -0.00
     6   1     0.28   0.37  -0.43    -0.36  -0.46   0.50    -0.00   0.00  -0.00
     7   9     0.00  -0.00  -0.00    -0.00  -0.00   0.00     0.00  -0.00  -0.00
     8   8     0.00  -0.00   0.00    -0.00  -0.00   0.00    -0.06   0.00  -0.00
     9   1     0.00  -0.00   0.00     0.00  -0.00   0.00     1.00  -0.05   0.05

 -------------------
 - Thermochemistry -
 -------------------
 Temperature   298.150 Kelvin.  Pressure   1.00000 Atm.
 Atom     1 has atomic number  6 and mass  12.00000
 Atom     2 has atomic number  1 and mass   1.00783
 Atom     3 has atomic number  1 and mass   1.00783
 Atom     4 has atomic number  6 and mass  12.00000
 Atom     5 has atomic number  1 and mass   1.00783
 Atom     6 has atomic number  1 and mass   1.00783
 Atom     7 has atomic number  9 and mass  18.99840
 Atom     8 has atomic number  8 and mass  15.99491
 Atom     9 has atomic number  1 and mass   1.00783
 Molecular mass:    64.03244 amu.
 Principal axes and moments of inertia in atomic units:
                           1         2         3
     Eigenvalues --   121.31953 298.53958 393.88242
           X            0.99914   0.04035   0.00985
           Y           -0.04032   0.99918  -0.00275
           Z           -0.00996   0.00235   0.99995
 This molecule is an asymmetric top.
 Rotational symmetry number  1.
 Rotational temperatures (Kelvin)      0.71393     0.29013     0.21990
 Rotational constants (GHZ):          14.87593     6.04523     4.58193
    1 imaginary frequencies ignored.
 Zero-point vibrational energy     190811.1 (Joules/Mol)
                                   45.60495 (Kcal/Mol)
 Warning -- explicit consideration of   3 degrees of freedom as
           vibrations may cause significant error
 Vibrational temperatures:    340.14   412.56   840.82  1241.23  1302.58
          (Kelvin)           1589.04  1608.57  1682.12  1763.55  1845.93
                             1870.75  2062.68  2115.06  2179.50  2201.54
                             4265.08  4303.95  4346.93  4409.85  5516.73
 
 Zero-point correction=                           0.072676 (Hartree/Particle)
 Thermal correction to Energy=                    0.076861
 Thermal correction to Enthalpy=                  0.077805
 Thermal correction to Gibbs Free Energy=         0.045986
 Sum of electronic and zero-point Energies=           -254.199638
 Sum of electronic and thermal Energies=              -254.195453
 Sum of electronic and thermal Enthalpies=            -254.194509
 Sum of electronic and thermal Free Energies=         -254.226328
 
                     E (Thermal)             CV                S
                      KCal/Mol        Cal/Mol-Kelvin    Cal/Mol-Kelvin
 Total                   48.231             13.133             66.969
 Electronic               0.000              0.000              0.000
 Translational            0.889              2.981             38.389
 Rotational               0.889              2.981             24.171
 Vibrational             46.454              7.171              4.409
 Vibration     1          0.655              1.785              1.830
 Vibration     2          0.684              1.698              1.493
 Vibration     3          0.941              1.065              0.477
                       Q            Log10(Q)             Ln(Q)
 Total Bot       0.704357D-21        -21.152207        -48.704756
 Total V=0       0.188998D+13         12.276458         28.267589
 Vib (Bot)       0.817982D-33        -33.087256        -76.186223
 Vib (Bot)    1  0.830747D+00         -0.080531         -0.185430
 Vib (Bot)    2  0.668100D+00         -0.175159         -0.403318
 Vib (Bot)    3  0.259599D+00         -0.585697         -1.348617
 Vib (V=0)       0.219487D+01          0.341409          0.786123
 Vib (V=0)    1  0.146961D+01          0.167202          0.384996
 Vib (V=0)    2  0.133448D+01          0.125312          0.288542
 Vib (V=0)    3  0.106338D+01          0.026687          0.061448
 Electronic      0.100000D+01          0.000000          0.000000
 Translational   0.201397D+08          7.304054         16.818206
 Rotational      0.427558D+05          4.630995         10.663261
 ***** Axes restored to original set *****
 -------------------------------------------------------------------
 Center     Atomic                   Forces (Hartrees/Bohr)
 Number     Number              X              Y              Z
 -------------------------------------------------------------------
      1        6           0.001104006   -0.000887930   -0.007760832
      2        1          -0.000015821    0.000049128   -0.000008713
      3        1          -0.000036365    0.000055227   -0.000019506
      4        6          -0.001199950   -0.000936851    0.007962233
      5        1           0.000061358    0.000029054    0.000014234
      6        1           0.000021277    0.000017616    0.000021963
      7        9           0.000670020    0.000881477   -0.004994996
      8        8          -0.000591261    0.000789424    0.004785514
      9        1          -0.000013264    0.000002854    0.000000103
 -------------------------------------------------------------------
 Cartesian Forces:  Max     0.007962233 RMS     0.002567720

 GradGradGradGradGradGradGradGradGradGradGradGradGradGradGradGradGradGrad
 Berny optimization.
 Search for a local minimum.
 Step number   1 out of a maximum of    2
 All quantities printed in internal units (Hartrees-Bohrs-Radians)
 Second derivative matrix not updated -- analytic derivatives used.
 ITU=  0
     Eigenvalues ---   -0.00274   0.00322   0.02621   0.03506   0.05593
     Eigenvalues ---    0.07266   0.07770   0.08138   0.10945   0.12029
     Eigenvalues ---    0.15585   0.15976   0.20301   0.29401   0.47975
     Eigenvalues ---    0.66870   0.70037   0.75471   0.78845   0.85578
     Eigenvalues ---    1.06204
 Eigenvalue     1 is  -2.74D-03 should be greater than     0.000000 Eigenvector:
                          Z6        Z2        Y5        Y3        Z7
   1                    0.38221  -0.36385  -0.35443  -0.34548  -0.28155
                          Z8        Y6        Z3        Z5        Y2
   1                    0.27752   0.25114  -0.24284   0.23936   0.23060
 Quadratic step=1.655D+00 exceeds max=3.000D-01 adjusted using Lamda=-1.255D-02.
 Angle between NR and scaled steps=   6.92 degrees.
 Angle between quadratic step and forces=  63.85 degrees.
 Linear search not attempted -- first point.
 B after Tr=     0.001509    0.005054   -0.005917
         Rot=    0.999980   -0.001465   -0.006176   -0.000440 Ang=  -0.73 deg.
 Variable       Old X    -DE/DX   Delta X   Delta X   Delta X     New X
                                 (Linear)    (Quad)   (Total)
    X1       -1.37306   0.00110   0.00000   0.00997   0.00787  -1.36520
    Y1        1.22786  -0.00089   0.00000  -0.01217  -0.00772   1.22014
    Z1       -0.17528  -0.00776   0.00000  -0.04049  -0.02599  -0.20126
    X2       -2.15497  -0.00002   0.00000   0.00479   0.01758  -2.13739
    Y2        2.58694   0.00005   0.00000   0.05815   0.05809   2.64503
    Z2        1.19220  -0.00001   0.00000  -0.10737  -0.07906   1.11314
    X3       -1.81087  -0.00004   0.00000   0.03983   0.01327  -1.79761
    Y3        1.95134   0.00006   0.00000  -0.09299  -0.08324   1.86810
    Z3       -2.07814  -0.00002   0.00000  -0.07555  -0.05396  -2.13210
    X4        1.52187  -0.00120   0.00000  -0.01098  -0.00773   1.51413
    Y4        1.11255  -0.00094   0.00000  -0.00960  -0.00386   1.10869
    Z4        0.18247   0.00796   0.00000   0.04462   0.02326   0.20573
    X5        2.03100   0.00006   0.00000  -0.04530  -0.01842   2.01258
    Y5        1.70901   0.00003   0.00000  -0.09044  -0.08998   1.61903
    Z5        2.10231   0.00001   0.00000   0.07636   0.05049   2.15280
    X6        2.46414   0.00002   0.00000  -0.00142  -0.01517   2.44897
    Y6        2.37845   0.00002   0.00000   0.05901   0.06934   2.44779
    Z6       -1.16092   0.00002   0.00000   0.11117   0.08208  -1.07884
    X7        2.40768   0.00067   0.00000   0.01982   0.01936   2.42704
    Y7       -1.30096   0.00088   0.00000   0.01991   0.02783  -1.27313
    Z7       -0.13657  -0.00499   0.00000  -0.09681  -0.13644  -0.27302
    X8       -2.36451  -0.00059   0.00000  -0.01609  -0.01034  -2.37485
    Y8       -1.23120   0.00079   0.00000   0.01849   0.02069  -1.21051
    Z8        0.13574   0.00479   0.00000   0.10856   0.12847   0.26421
    X9       -4.17511  -0.00001   0.00000  -0.00936  -0.00642  -4.18153
    Y9       -1.10999   0.00000   0.00000   0.00759   0.00885  -1.10114
    Z9        0.04459   0.00000   0.00000  -0.03138   0.01115   0.05574
         Item               Value     Threshold  Converged?
 Maximum Force            0.007962     0.000450     NO 
 RMS     Force            0.002568     0.000300     NO 
 Maximum Displacement     0.136444     0.001800     NO 
 RMS     Displacement     0.054830     0.001200     NO 
 Predicted change in Energy=-1.687757D-03
 GradGradGradGradGradGradGradGradGradGradGradGradGradGradGradGradGradGrad


 ----------------------------------------------------------------------

 Electric dipole moment (input orientation):
 (Debye = 10**-18 statcoulomb cm , SI units = C m)
                  (au)            (Debye)         (10**-30 SI)
   Tot        0.112931D+01      0.287043D+01      0.957473D+01
   x         -0.616347D+00     -0.156660D+01     -0.522561D+01
   y          0.946280D+00      0.240520D+01      0.802290D+01
   z         -0.472398D-02     -0.120072D-01     -0.400516D-01

 Dipole polarizability, Alpha (input orientation).
 (esu units = cm**3 , SI units = C**2 m**2 J**-1)
 Alpha(0;0):
               (au)            (10**-24 esu)      (10**-40 SI)
   iso        0.284020D+02      0.420875D+01      0.468286D+01
   aniso      0.491324D+01      0.728066D+00      0.810083D+00
   xx         0.309388D+02      0.458466D+01      0.510113D+01
   yx         0.128516D+01      0.190442D+00      0.211895D+00
   yy         0.283465D+02      0.420052D+01      0.467371D+01
   zx         0.215751D+00      0.319710D-01      0.355725D-01
   zy        -0.225292D+00     -0.333848D-01     -0.371456D-01
   zz         0.259207D+02      0.384106D+01      0.427375D+01

 ----------------------------------------------------------------------

 Dipole orientation:
     6         -0.49414054         -0.12155409          1.77896123
     1          0.32829852         -1.22563893          3.33879289
     1         -1.50727236          1.48522059          2.63209013
     6          1.67716120          0.87412882          0.10088188
     1          3.35570649         -0.32482086          0.31476254
     1          2.18575036          2.80586624          0.65296299
     9          1.01551521          0.83643274         -2.40357381
     8         -2.14857084         -1.56273384          0.25826340
     1         -3.41167573         -2.28209177          1.34838412

 Electric dipole moment (dipole orientation):
 (Debye = 10**-18 statcoulomb cm , SI units = C m)
                  (au)            (Debye)         (10**-30 SI)
   Tot        0.112931D+01      0.287043D+01      0.957473D+01
   x          0.000000D+00      0.000000D+00      0.000000D+00
   y          0.000000D+00      0.000000D+00      0.000000D+00
   z          0.112931D+01      0.287043D+01      0.957473D+01

 Dipole polarizability, Alpha (dipole orientation).
 (esu units = cm**3 , SI units = C**2 m**2 J**-1)
 Alpha(0;0):
               (au)            (10**-24 esu)      (10**-40 SI)
   iso        0.284020D+02      0.420875D+01      0.468286D+01
   aniso      0.491324D+01      0.728066D+00      0.810083D+00
   xx         0.297769D+02      0.441247D+01      0.490954D+01
   yx         0.245824D+01      0.364274D+00      0.405309D+00
   yy         0.274835D+02      0.407263D+01      0.453142D+01
   zx        -0.720917D+00     -0.106829D+00     -0.118863D+00
   zy        -0.113851D+00     -0.168710D-01     -0.187715D-01
   zz         0.279458D+02      0.414114D+01      0.460764D+01

 ----------------------------------------------------------------------
 Unable to Open any file for archive entry.
 1\1\GINC-COMPUTE-2-1\Freq\RB3LYP\6-31G(2df,p)\C2H5F1O1\JINGDAN2\05-Dec
 -2024\0\\# freq b3lyp/6-31g(2df,p)\\energy: -15.614184499692 gnorm: 0.
 000439253721 xtb: 6.6.1 (8d0f1dd)\\0,1\C,-0.726593,0.649754,-0.092752\
 H,-1.140363,1.368949,0.630886\H,-0.958273,1.032605,-1.099703\C,0.80533
 7,0.588738,0.096559\H,1.074759,0.904367,1.112492\H,1.303967,1.258623,-
 0.61433\F,1.274088,-0.688438,-0.072272\O,-1.251246,-0.651522,0.071833\
 H,-2.209374,-0.587379,0.023594\\Version=ES64L-G16RevC.01\State=1-A\HF=
 -254.272314\RMSD=4.655e-09\RMSF=2.568e-03\ZeroPoint=0.0726761\Thermal=
 0.0768613\ETot=-254.1954527\HTot=-254.1945085\GTot=-254.2263277\Dipole
 =-0.616347,0.9462799,-0.004724\DipoleDeriv=0.3267067,0.2107231,-0.0299
 543,0.1573008,0.6692368,-0.0436682,-0.0295166,-0.0459831,0.4125114,-0.
 0402148,0.0415451,0.0403588,0.0114218,-0.1270071,-0.0842337,0.0640453,
 -0.1159424,-0.0753947,-0.0434361,-0.0021021,-0.0430145,-0.0255228,-0.0
 573678,0.0738663,-0.0524745,0.1086576,-0.1857648,0.5125281,-0.1819732,
 -0.0225797,-0.1209616,0.7961718,0.0505104,-0.0198044,0.0549539,0.43370
 06,-0.0335206,0.0058412,-0.0482429,0.009119,-0.0125064,-0.037067,-0.07
 16639,-0.0751138,-0.1504823,-0.0471334,-0.0448618,0.0471779,-0.0364869
 ,-0.0659299,0.0584453,0.0743336,0.0978945,-0.0513851,-0.3977089,0.2042
 887,0.0260159,0.2310541,-0.7106387,-0.074479,0.0210039,-0.0710905,-0.2
 301661,-0.4130123,-0.2753617,0.0460962,-0.280412,-0.7468603,0.0429624,
 0.041459,0.0342531,-0.4842921,0.1357914,0.0419006,-0.0158575,0.0544876
 ,0.2549015,0.0136636,-0.0273824,0.0123707,0.331273\Polar=30.9388465,1.
 2851635,28.3465447,0.2157508,-0.2252915,25.9207319\Quadrupole=1.975916
 4,-1.3663563,-0.6095601,0.9818234,0.2475892,0.057837\PG=C01 [X(C2H5F1O
 1)]\NImag=1\\0.48783580,-0.02758535,0.51275424,0.00094712,0.01265231,0
 .57108707,-0.09099827,0.05941185,0.06475370,0.09395617,0.05588090,-0.1
 3571421,-0.09558219,-0.06173694,0.16316089,0.06755633,-0.10024750,-0.1
 6638646,-0.06791280,0.11116096,0.17175633,-0.06397711,0.01900939,-0.04
 687325,0.00451723,-0.00191768,0.01297724,0.06867398,0.01863390,-0.0692
 7253,0.05956165,-0.00278754,0.00871690,-0.01786919,-0.01256776,0.08838
 982,-0.04839656,0.06221206,-0.25542046,-0.00571308,0.00513533,-0.02190
 811,0.05086938,-0.07867568,0.27336539,-0.16983851,-0.00786358,-0.02248
 805,-0.00878139,0.00271044,-0.00422909,-0.00957316,-0.00097788,0.00002
 911,0.47538026,0.01093862,-0.06742196,0.00141968,0.01925642,-0.0002523
 1,0.00350717,0.00584672,0.00016806,-0.00099935,0.03604200,0.53036893,-
 0.02284570,0.00177985,-0.08625821,0.02053389,-0.00428452,0.00237464,-0
 .03187446,0.00374403,-0.00333948,-0.00641900,-0.01654366,0.60156430,-0
 .01012824,-0.00430138,-0.03144828,0.00113014,-0.00034991,0.00007879,-0
 .00555899,0.00015604,-0.00095652,-0.06816468,-0.01967566,-0.05875430,0
 .07259979,0.00152269,0.00131562,-0.00206064,0.00102064,0.00122357,0.00
 056922,0.00001843,0.00045058,0.00019659,-0.01887171,-0.06271190,-0.047
 65687,0.01150927,0.08264076,0.00029069,0.00142691,-0.00296833,-0.00058
 076,0.00052581,0.00172736,-0.00099743,-0.00011005,0.00160503,-0.057685
 87,-0.05590715,-0.27261706,0.06174268,0.07050455,0.28923899,-0.0108271
 7,-0.01838321,0.02003715,-0.00172811,0.00123771,-0.00013957,0.00112618
 ,-0.00068423,-0.00065827,-0.10903177,-0.06971729,0.08090726,0.00519776
 ,0.00343688,-0.00641678,0.11307680,-0.00213630,0.00394020,0.00342597,-
 0.00170392,-0.00079627,-0.00037448,0.00054577,0.00114036,-0.00049142,-
 0.06473235,-0.12938984,0.08983398,0.00214911,0.00860943,-0.00418519,0.
 07119247,0.15710794,-0.00558845,-0.00310652,0.00329079,-0.00031864,0.0
 0032114,0.00052529,0.00012433,-0.00055907,0.00158718,0.08177789,0.0984
 6026,-0.17056374,0.01488404,0.01688709,-0.01959357,-0.08365359,-0.1076
 5229,0.17282018,-0.01837761,0.04067237,0.00866042,-0.00687435,-0.00012
 137,-0.00206318,-0.00104599,-0.00005157,-0.00032564,-0.08488922,0.0603
 5203,0.00956549,0.00550778,0.00089537,0.00376689,0.00902827,-0.0065681
 8,-0.00545700,0.09613483,0.01218738,-0.02067618,-0.00314382,0.00238699
 ,0.00052845,0.00168966,0.00158688,0.00038457,0.00074544,0.06376923,-0.
 25526367,-0.02839527,0.01112663,-0.03208955,-0.01165323,0.01369000,-0.
 04092475,-0.00316238,-0.09921652,0.34250604,0.00299120,0.00185682,0.00
 417091,-0.00017291,0.00048197,0.00050751,0.00100023,-0.00068662,0.0002
 0503,0.00683432,-0.02633191,-0.07366984,0.01357701,-0.03909980,0.00241
 347,-0.00973879,0.01977807,0.01144897,-0.01477775,0.04375446,0.0536520
 6,-0.10780949,-0.06823513,0.00824680,0.00688293,0.00264591,-0.00555924
 ,0.00487196,-0.00331104,0.00508746,-0.02441423,-0.04110140,0.00752721,
 -0.00060213,0.00052618,-0.00013484,-0.00627319,0.00115345,-0.00146665,
 -0.00032166,-0.00368658,0.00035557,0.64039204,-0.02061548,-0.21757910,
 0.02551982,-0.01601892,-0.03793534,0.00244521,-0.01279961,-0.03048718,
 0.01110902,-0.00877527,-0.00723480,-0.00009798,-0.00035021,0.00045280,
 -0.00062131,0.00070567,-0.00005539,-0.00085643,0.00168710,0.00449312,0
 .00025310,0.04136777,0.33039193,-0.00014448,0.02317209,-0.06625625,-0.
 00969624,-0.01860212,0.01063589,0.01392189,0.03472592,0.00349586,0.001
 96357,-0.00371546,0.00223034,0.00086185,0.00053767,0.00041240,-0.00040
 751,-0.00034747,0.00037257,0.00054339,0.00011306,0.00111413,0.01593453
 ,-0.04433015,0.05226805,-0.01587939,0.00727505,-0.00183561,0.00189564,
 0.00165094,-0.00070847,0.00096590,0.00159008,0.00006412,-0.00068731,-0
 .00194144,0.00135960,0.00001857,-0.00005775,0.00001543,-0.00056879,0.0
 0009994,-0.00030193,0.00083794,-0.00184402,-0.00006888,-0.51272623,0.0
 1479894,-0.02297701,0.52614367,-0.04882636,-0.00734607,-0.00179278,0.0
 0017141,0.00106833,-0.00088105,0.00027786,0.00050942,0.00076801,-0.001
 30088,-0.00826251,0.00162042,-0.00026390,0.00010870,0.00001966,-0.0014
 7801,0.00036833,-0.00033180,0.00235077,0.00104197,-0.00000608,0.070640
 83,-0.04204603,0.00844646,-0.02157173,0.05455786,0.00518986,0.00025398
 ,-0.00125907,-0.00089317,0.00084361,0.00076755,0.00085206,-0.00013100,
 0.00040956,0.00021712,0.00011042,0.00027906,0.00001474,0.00012219,-0.0
 0021828,0.00007010,0.00001283,0.00011234,0.00008739,0.00005209,0.00015
 776,-0.02999085,0.00657872,-0.00427298,0.02445276,-0.00784284,0.004024
 07\\-0.00110401,0.00088793,0.00776083,0.00001582,-0.00004913,0.0000087
 1,0.00003637,-0.00005523,0.00001951,0.00119995,0.00093685,-0.00796223,
 -0.00006136,-0.00002905,-0.00001423,-0.00002128,-0.00001762,-0.0000219
 6,-0.00067002,-0.00088148,0.00499500,0.00059126,-0.00078942,-0.0047855
 1,0.00001326,-0.00000285,-0.00000010\\\@
 The archive entry for this job was punched.


 IF AT FIRST YOU DON'T SUCCEED, TRY LOOKING IN 
 THE WASTEBASKET FOR THE DIRECTIONS.
 Job cpu time:       0 days  0 hours  7 minutes 24.9 seconds.
 Elapsed time:       0 days  0 hours  0 minutes 56.9 seconds.
 File lengths (MBytes):  RWF=     21 Int=      0 D2E=      0 Chk=      2 Scr=      1
 Normal termination of Gaussian 16 at Thu Dec  5 18:22:50 2024.
