 Entering Gaussian System, Link 0=g16
 Input=rotation_std27.gjf
 Output=rotation_std27.log
 Initial command:
 /share/apps/gaussian/g16/l1.exe "/scratch/jingdan2/247455/Gau-452715.inp" -scrdir="/scratch/jingdan2/247455/"
 Entering Link 1 = /share/apps/gaussian/g16/l1.exe PID=    452721.
  
 Copyright (c) 1988-2019, Gaussian, Inc.  All Rights Reserved.
  
 This is part of the Gaussian(R) 16 program.  It is based on
 the Gaussian(R) 09 system (copyright 2009, Gaussian, Inc.),
 the Gaussian(R) 03 system (copyright 2003, Gaussian, Inc.),
 the Gaussian(R) 98 system (copyright 1998, Gaussian, Inc.),
 the Gaussian(R) 94 system (copyright 1995, Gaussian, Inc.),
 the Gaussian 92(TM) system (copyright 1992, Gaussian, Inc.),
 the Gaussian 90(TM) system (copyright 1990, Gaussian, Inc.),
 the Gaussian 88(TM) system (copyright 1988, Gaussian, Inc.),
 the Gaussian 86(TM) system (copyright 1986, Carnegie Mellon
 University), and the Gaussian 82(TM) system (copyright 1983,
 Carnegie Mellon University). Gaussian is a federally registered
 trademark of Gaussian, Inc.
  
 This software contains proprietary and confidential information,
 including trade secrets, belonging to Gaussian, Inc.
  
 This software is provided under written license and may be
 used, copied, transmitted, or stored only in accord with that
 written license.
  
 The following legend is applicable only to US Government
 contracts under FAR:
  
                    RESTRICTED RIGHTS LEGEND
  
 Use, reproduction and disclosure by the US Government is
 subject to restrictions as set forth in subparagraphs (a)
 and (c) of the Commercial Computer Software - Restricted
 Rights clause in FAR 52.227-19.
  
 Gaussian, Inc.
 340 Quinnipiac St., Bldg. 40, Wallingford CT 06492
  
  
 ---------------------------------------------------------------
 Warning -- This program may not be used in any manner that
 competes with the business of Gaussian, Inc. or will provide
 assistance to any competitor of Gaussian, Inc.  The licensee
 of this program is prohibited from giving any competitor of
 Gaussian, Inc. access to this program.  By using this program,
 the user acknowledges that Gaussian, Inc. is engaged in the
 business of creating and licensing software in the field of
 computational chemistry and represents and warrants to the
 licensee that it is not a competitor of Gaussian, Inc. and that
 it will not use this program in any manner prohibited above.
 ---------------------------------------------------------------
  

 Cite this work as:
 Gaussian 16, Revision C.01,
 M. J. Frisch, G. W. Trucks, H. B. Schlegel, G. E. Scuseria, 
 M. A. Robb, J. R. Cheeseman, G. Scalmani, V. Barone, 
 G. A. Petersson, H. Nakatsuji, X. Li, M. Caricato, A. V. Marenich, 
 J. Bloino, B. G. Janesko, R. Gomperts, B. Mennucci, H. P. Hratchian, 
 J. V. Ortiz, A. F. Izmaylov, J. L. Sonnenberg, D. Williams-Young, 
 F. Ding, F. Lipparini, F. Egidi, J. Goings, B. Peng, A. Petrone, 
 T. Henderson, D. Ranasinghe, V. G. Zakrzewski, J. Gao, N. Rega, 
 G. Zheng, W. Liang, M. Hada, M. Ehara, K. Toyota, R. Fukuda, 
 J. Hasegawa, M. Ishida, T. Nakajima, Y. Honda, O. Kitao, H. Nakai, 
 T. Vreven, K. Throssell, J. A. Montgomery, Jr., J. E. Peralta, 
 F. Ogliaro, M. J. Bearpark, J. J. Heyd, E. N. Brothers, K. N. Kudin, 
 V. N. Staroverov, T. A. Keith, R. Kobayashi, J. Normand, 
 K. Raghavachari, A. P. Rendell, J. C. Burant, S. S. Iyengar, 
 J. Tomasi, M. Cossi, J. M. Millam, M. Klene, C. Adamo, R. Cammi, 
 J. W. Ochterski, R. L. Martin, K. Morokuma, O. Farkas, 
 J. B. Foresman, and D. J. Fox, Gaussian, Inc., Wallingford CT, 2019.
 
 ******************************************
 Gaussian 16:  ES64L-G16RevC.01  3-Jul-2019
                 5-Dec-2024 
 ******************************************
 %nprocshared=8
 Will use up to    8 processors via shared memory.
 %mem=8GB
 -------------------------
 # freq b3lyp/6-31g(2df,p)
 -------------------------
 1/10=4,30=1,38=1/1,3;
 2/12=2,17=6,18=5,40=1/2;
 3/5=1,6=6,7=104,11=2,25=1,30=1,71=2,74=-5,140=1/1,2,3;
 4//1;
 5/5=2,38=5,98=1/2;
 8/6=4,10=90,11=11/1;
 11/6=1,8=1,9=11,15=111,16=1/1,2,10;
 10/6=1/2;
 6/7=2,8=2,9=2,10=2,28=1/1;
 7/8=1,10=1,25=1/1,2,3,16;
 1/10=4,30=1/3;
 99//99;
 -------------------------------------------------------------------
 energy: -15.614184499692 gnorm: 0.000439253721 xtb: 6.6.1 (8d0f1dd)
 -------------------------------------------------------------------
 Symbolic Z-matrix:
 Charge =  0 Multiplicity = 1
 C                    -0.64812   0.51075  -0.32831 
 H                    -1.08015   1.51313  -0.1693 
 H                    -0.50465   0.37378  -1.41028 
 C                     0.70996   0.46547   0.34152 
 H                     0.58605   0.29029   1.41686 
 H                     1.23276   1.41851   0.18975 
 F                     1.48459  -0.54244  -0.19148 
 O                    -1.46363  -0.49817   0.23914 
 H                    -2.25737  -0.58571  -0.29602 
 

 GradGradGradGradGradGradGradGradGradGradGradGradGradGradGradGradGradGrad
 Berny optimization.
 Initialization pass.
 Trust Radius=3.00D-01 FncErr=1.00D-07 GrdErr=1.00D-07 EigMax=2.50D+02 EigMin=1.00D-04
 Number of steps in this run=      2 maximum allowed number of steps=      2.
 GradGradGradGradGradGradGradGradGradGradGradGradGradGradGradGradGradGrad

                          Input orientation:                          
 ---------------------------------------------------------------------
 Center     Atomic      Atomic             Coordinates (Angstroms)
 Number     Number       Type             X           Y           Z
 ---------------------------------------------------------------------
      1          6           0       -0.648115    0.510752   -0.328310
      2          1           0       -1.080153    1.513131   -0.169297
      3          1           0       -0.504647    0.373776   -1.410282
      4          6           0        0.709960    0.465469    0.341517
      5          1           0        0.586045    0.290292    1.416864
      6          1           0        1.232763    1.418508    0.189753
      7          9           0        1.484593   -0.542438   -0.191483
      8          8           0       -1.463631   -0.498173    0.239135
      9          1           0       -2.257370   -0.585712   -0.296015
 ---------------------------------------------------------------------
                    Distance matrix (angstroms):
                    1          2          3          4          5
     1  C    0.000000
     2  H    1.103044   0.000000
     3  H    1.100004   1.780275   0.000000
     4  C    1.514954   2.136125   2.133654   0.000000
     5  H    2.148810   2.605275   3.031391   1.096546   0.000000
     6  H    2.151770   2.342531   2.582667   1.097560   1.787992
     7  F    2.382514   3.286910   2.506391   1.378413   2.021783
     8  O    1.415977   2.087874   2.097742   2.379829   2.491966
     9  H    1.947557   2.409780   2.287847   3.211927   3.433125
                    6          7          8          9
     6  H    0.000000
     7  F    2.013472   0.000000
     8  O    3.308571   2.979835   0.000000
     9  H    4.053874   3.743673   0.961286   0.000000
 Stoichiometry    C2H5FO
 Framework group  C1[X(C2H5FO)]
 Deg. of freedom    21
 Full point group                 C1      NOp   1
 Largest Abelian subgroup         C1      NOp   1
 Largest concise Abelian subgroup C1      NOp   1
                         Standard orientation:                         
 ---------------------------------------------------------------------
 Center     Atomic      Atomic             Coordinates (Angstroms)
 Number     Number       Type             X           Y           Z
 ---------------------------------------------------------------------
      1          6           0       -0.648115    0.510752   -0.328310
      2          1           0       -1.080153    1.513131   -0.169297
      3          1           0       -0.504647    0.373776   -1.410282
      4          6           0        0.709960    0.465469    0.341517
      5          1           0        0.586045    0.290292    1.416864
      6          1           0        1.232763    1.418508    0.189753
      7          9           0        1.484593   -0.542438   -0.191483
      8          8           0       -1.463631   -0.498173    0.239135
      9          1           0       -2.257370   -0.585712   -0.296015
 ---------------------------------------------------------------------
 Rotational constants (GHZ):          17.8339751           4.8584446           4.3725385
 Standard basis: 6-31G(2df,p) (6D, 7F)
 There are   149 symmetry adapted cartesian basis functions of A   symmetry.
 There are   137 symmetry adapted basis functions of A   symmetry.
   137 basis functions,   211 primitive gaussians,   149 cartesian basis functions
    17 alpha electrons       17 beta electrons
       nuclear repulsion energy       129.7046573498 Hartrees.
 NAtoms=    9 NActive=    9 NUniq=    9 SFac= 1.00D+00 NAtFMM=   60 NAOKFM=F Big=F
 Integral buffers will be    131072 words long.
 Raffenetti 2 integral format.
 Two-electron integral symmetry is turned on.
 One-electron integrals computed using PRISM.
 NBasis=   137 RedAO= T EigKep=  1.21D-03  NBF=   137
 NBsUse=   137 1.00D-06 EigRej= -1.00D+00 NBFU=   137
 ExpMin= 1.61D-01 ExpMax= 7.00D+03 ExpMxC= 1.05D+03 IAcc=3 IRadAn=         5 AccDes= 0.00D+00
 Harris functional with IExCor=  402 and IRadAn=       5 diagonalized for initial guess.
 HarFok:  IExCor=  402 AccDes= 0.00D+00 IRadAn=         5 IDoV= 1 UseB2=F ITyADJ=14
 ICtDFT=  3500011 ScaDFX=  1.000000  1.000000  1.000000  1.000000
 FoFCou: FMM=F IPFlag=           0 FMFlag=      100000 FMFlg1=           0
         NFxFlg=           0 DoJE=T BraDBF=F KetDBF=T FulRan=T
         wScrn=  0.000000 ICntrl=       500 IOpCl=  0 I1Cent=   200000004 NGrid=           0
         NMat0=    1 NMatS0=      1 NMatT0=    0 NMatD0=    1 NMtDS0=    0 NMtDT0=    0
 Petite list used in FoFCou.
 Keep R1 ints in memory in canonical form, NReq=52495207.
 Requested convergence on RMS density matrix=1.00D-08 within 128 cycles.
 Requested convergence on MAX density matrix=1.00D-06.
 Requested convergence on             energy=1.00D-06.
 No special actions if energy rises.
 Integral accuracy reduced to 1.0D-05 until final iterations.
 Initial convergence to 1.0D-05 achieved.  Increase integral accuracy.
 SCF Done:  E(RB3LYP) =  -254.280806694     A.U. after   12 cycles
            NFock= 12  Conv=0.34D-08     -V/T= 2.0063
 DoSCS=F DFT=T ScalE2(SS,OS)=  1.000000  1.000000
 Range of M.O.s used for correlation:     1   137
 NBasis=   137 NAE=    17 NBE=    17 NFC=     0 NFV=     0
 NROrb=    137 NOA=    17 NOB=    17 NVA=   120 NVB=   120

 **** Warning!!: The largest alpha MO coefficient is  0.18650930D+02

 Symmetrizing basis deriv contribution to polar:
 IMax=3 JMax=2 DiffMx= 0.00D+00
 G2DrvN: will do    10 centers at a time, making    1 passes.
 Calling FoFCou, ICntrl=  3107 FMM=F I1Cent=   0 AccDes= 0.00D+00.
 End of G2Drv F.D. properties file   721 does not exist.
 End of G2Drv F.D. properties file   722 does not exist.
 End of G2Drv F.D. properties file   788 does not exist.
          IDoAtm=111111111
          Differentiating once with respect to electric field.
                with respect to dipole field.
          Differentiating once with respect to nuclear coordinates.
 Keep R1 ints in memory in canonical form, NReq=52475930.
          There are    30 degrees of freedom in the 1st order CPHF.  IDoFFX=6 NUNeed=     3.
     27 vectors produced by pass  0 Test12= 6.80D-15 3.33D-09 XBig12= 1.52D+01 1.54D+00.
 AX will form    27 AO Fock derivatives at one time.
     27 vectors produced by pass  1 Test12= 6.80D-15 3.33D-09 XBig12= 1.12D+00 2.06D-01.
     27 vectors produced by pass  2 Test12= 6.80D-15 3.33D-09 XBig12= 1.59D-02 3.04D-02.
     27 vectors produced by pass  3 Test12= 6.80D-15 3.33D-09 XBig12= 5.09D-05 1.06D-03.
     27 vectors produced by pass  4 Test12= 6.80D-15 3.33D-09 XBig12= 7.61D-08 3.64D-05.
     14 vectors produced by pass  5 Test12= 6.80D-15 3.33D-09 XBig12= 6.59D-11 1.42D-06.
      3 vectors produced by pass  6 Test12= 6.80D-15 3.33D-09 XBig12= 6.05D-14 3.83D-08.
 InvSVY:  IOpt=1 It=  1 EMax= 4.00D-15
 Solved reduced A of dimension   152 with    30 vectors.
 Isotropic polarizability for W=    0.000000       28.57 Bohr**3.
 End of Minotr F.D. properties file   721 does not exist.
 End of Minotr F.D. properties file   722 does not exist.
 End of Minotr F.D. properties file   788 does not exist.

 **********************************************************************

            Population analysis using the SCF Density.

 **********************************************************************

 Orbital symmetries:
       Occupied  (A) (A) (A) (A) (A) (A) (A) (A) (A) (A) (A) (A)
                 (A) (A) (A) (A) (A)
       Virtual   (A) (A) (A) (A) (A) (A) (A) (A) (A) (A) (A) (A)
                 (A) (A) (A) (A) (A) (A) (A) (A) (A) (A) (A) (A)
                 (A) (A) (A) (A) (A) (A) (A) (A) (A) (A) (A) (A)
                 (A) (A) (A) (A) (A) (A) (A) (A) (A) (A) (A) (A)
                 (A) (A) (A) (A) (A) (A) (A) (A) (A) (A) (A) (A)
                 (A) (A) (A) (A) (A) (A) (A) (A) (A) (A) (A) (A)
                 (A) (A) (A) (A) (A) (A) (A) (A) (A) (A) (A) (A)
                 (A) (A) (A) (A) (A) (A) (A) (A) (A) (A) (A) (A)
                 (A) (A) (A) (A) (A) (A) (A) (A) (A) (A) (A) (A)
                 (A) (A) (A) (A) (A) (A) (A) (A) (A) (A) (A) (A)
 The electronic state is 1-A.
 Alpha  occ. eigenvalues --  -24.66193 -19.14010 -10.25171 -10.23535  -1.17741
 Alpha  occ. eigenvalues --   -1.02208  -0.75081  -0.61874  -0.53197  -0.49759
 Alpha  occ. eigenvalues --   -0.45775  -0.45211  -0.42264  -0.36378  -0.33027
 Alpha  occ. eigenvalues --   -0.31940  -0.27476
 Alpha virt. eigenvalues --    0.07227   0.11364   0.12582   0.15306   0.16909
 Alpha virt. eigenvalues --    0.18263   0.21010   0.22561   0.44395   0.45653
 Alpha virt. eigenvalues --    0.49621   0.50504   0.57662   0.60733   0.66274
 Alpha virt. eigenvalues --    0.68656   0.69765   0.72723   0.76857   0.79538
 Alpha virt. eigenvalues --    0.80848   0.82749   0.87417   0.89285   0.91621
 Alpha virt. eigenvalues --    0.95114   0.96367   1.00622   1.04470   1.06820
 Alpha virt. eigenvalues --    1.10427   1.11079   1.23501   1.28234   1.30755
 Alpha virt. eigenvalues --    1.35024   1.40338   1.44288   1.50464   1.57057
 Alpha virt. eigenvalues --    1.60537   1.62818   1.69536   1.71469   1.75190
 Alpha virt. eigenvalues --    1.89009   1.95142   2.06975   2.11617   2.24858
 Alpha virt. eigenvalues --    2.30867   2.37887   2.45547   2.51994   2.52610
 Alpha virt. eigenvalues --    2.59577   2.64125   2.72559   2.74704   2.81770
 Alpha virt. eigenvalues --    2.87778   2.91857   2.93552   2.99485   3.07646
 Alpha virt. eigenvalues --    3.20739   3.26665   3.33348   3.34826   3.37891
 Alpha virt. eigenvalues --    3.40187   3.54098   3.55115   3.57920   3.66956
 Alpha virt. eigenvalues --    3.89738   3.91888   4.08905   4.10056   4.14094
 Alpha virt. eigenvalues --    4.19946   4.23992   4.32306   4.39272   4.42582
 Alpha virt. eigenvalues --    4.46784   4.47449   4.49393   4.52239   4.60885
 Alpha virt. eigenvalues --    4.63827   4.64298   4.68593   4.69501   4.73895
 Alpha virt. eigenvalues --    4.78861   4.81224   4.87065   4.94033   5.23087
 Alpha virt. eigenvalues --    5.32487   5.41411   5.47087   5.52301   5.76682
 Alpha virt. eigenvalues --    5.93118   5.99594   6.05448   6.67340   6.68066
 Alpha virt. eigenvalues --    6.79603   6.80236   7.05156   7.24904   7.31610
 Alpha virt. eigenvalues --    7.33556   9.55238  11.02619  11.83349  13.16725
          Condensed to atoms (all electrons):
               1          2          3          4          5          6
     1  C    4.824207   0.332299   0.354800   0.372432  -0.038394  -0.040233
     2  H    0.332299   0.690232  -0.051519  -0.027840   0.001332   0.002786
     3  H    0.354800  -0.051519   0.651310  -0.027719   0.007251  -0.000279
     4  C    0.372432  -0.027840  -0.027719   4.665584   0.348508   0.345685
     5  H   -0.038394   0.001332   0.007251   0.348508   0.638480  -0.048170
     6  H   -0.040233   0.002786  -0.000279   0.345685  -0.048170   0.666876
     7  F   -0.032062   0.001989   0.000719   0.385056  -0.023621  -0.024211
     8  O    0.356656  -0.033384  -0.031678  -0.032048   0.000376   0.002204
     9  H   -0.048683  -0.002215  -0.006203   0.005713  -0.000260  -0.000328
               7          8          9
     1  C   -0.032062   0.356656  -0.048683
     2  H    0.001989  -0.033384  -0.002215
     3  H    0.000719  -0.031678  -0.006203
     4  C    0.385056  -0.032048   0.005713
     5  H   -0.023621   0.000376  -0.000260
     6  H   -0.024211   0.002204  -0.000328
     7  F    8.851036  -0.000069  -0.000084
     8  O   -0.000069   7.847459   0.305716
     9  H   -0.000084   0.305716   0.455774
 Mulliken charges:
               1
     1  C   -0.081021
     2  H    0.086320
     3  H    0.103317
     4  C   -0.035372
     5  H    0.114499
     6  H    0.095671
     7  F   -0.158753
     8  O   -0.415232
     9  H    0.290570
 Sum of Mulliken charges =   0.00000
 Mulliken charges with hydrogens summed into heavy atoms:
               1
     1  C    0.108616
     4  C    0.174799
     7  F   -0.158753
     8  O   -0.124662
 APT charges:
               1
     1  C    0.461078
     2  H   -0.082013
     3  H   -0.064726
     4  C    0.565769
     5  H   -0.034154
     6  H   -0.053528
     7  F   -0.465266
     8  O   -0.566281
     9  H    0.239121
 Sum of APT charges =   0.00000
 APT charges with hydrogens summed into heavy atoms:
               1
     1  C    0.314339
     4  C    0.478087
     7  F   -0.465266
     8  O   -0.327160
 Electronic spatial extent (au):  <R**2>=            299.4107
 Charge=             -0.0000 electrons
 Dipole moment (field-independent basis, Debye):
    X=             -1.4639    Y=              1.7369    Z=             -0.6969  Tot=              2.3760
 Quadrupole moment (field-independent basis, Debye-Ang):
   XX=            -22.0308   YY=            -23.7099   ZZ=            -22.9192
   XY=              1.5038   XZ=              3.0802   YZ=              0.5666
 Traceless Quadrupole moment (field-independent basis, Debye-Ang):
   XX=              0.8558   YY=             -0.8232   ZZ=             -0.0326
   XY=              1.5038   XZ=              3.0802   YZ=              0.5666
 Octapole moment (field-independent basis, Debye-Ang**2):
  XXX=            -10.2749  YYY=             -5.1810  ZZZ=             -0.7584  XYY=              1.2724
  XXY=             -2.5150  XXZ=             -4.2701  XZZ=              1.9198  YZZ=             -2.2117
  YYZ=             -0.4775  XYZ=             -1.4103
 Hexadecapole moment (field-independent basis, Debye-Ang**3):
 XXXX=           -180.1998 YYYY=            -71.1356 ZZZZ=            -45.3236 XXXY=              8.5333
 XXXZ=              7.3280 YYYX=             -1.9877 YYYZ=              1.0559 ZZZX=             -1.6135
 ZZZY=              0.8274 XXYY=            -44.4785 XXZZ=            -43.1287 YYZZ=            -20.5836
 XXYZ=              2.4734 YYXZ=             -0.6403 ZZXY=             -0.7494
 N-N= 1.297046573498D+02 E-N=-8.591571385078D+02  KE= 2.526791472265D+02
  Exact polarizability:      30.976       1.611      27.817       1.066      -0.179      26.922
 Approx polarizability:      38.501       1.057      38.495       0.158      -0.344      37.016
 Calling FoFJK, ICntrl=    100127 FMM=F ISym2X=0 I1Cent= 0 IOpClX= 0 NMat=1 NMatS=1 NMatT=0.
 Full mass-weighted force constant matrix:
 Low frequencies ---  -21.5019   -3.0367   -0.0005    0.0004    0.0012   17.4798
 Low frequencies ---  129.6974  226.9349  336.9173
 Diagonal vibrational polarizability:
       15.5948786      36.1436009      20.2066711
 Harmonic frequencies (cm**-1), IR intensities (KM/Mole), Raman scattering
 activities (A**4/AMU), depolarization ratios for plane and unpolarized
 incident light, reduced masses (AMU), force constants (mDyne/A),
 and normal coordinates:
                      1                      2                      3
                      A                      A                      A
 Frequencies --    129.6821               226.9342               336.9156
 Red. masses --      3.6982                 1.0959                 2.6543
 Frc consts  --      0.0366                 0.0333                 0.1775
 IR Inten    --      2.0367               112.9764                 4.3399
  Atom  AN      X      Y      Z        X      Y      Z        X      Y      Z
     1   6     0.02  -0.14  -0.08    -0.01  -0.01  -0.01     0.08  -0.00  -0.13
     2   1     0.13  -0.05  -0.38    -0.01  -0.02   0.05    -0.05  -0.02  -0.45
     3   1     0.14  -0.43  -0.02    -0.03   0.05  -0.02     0.30  -0.28  -0.07
     4   6    -0.04  -0.14   0.08    -0.00   0.00  -0.02    -0.08  -0.01   0.13
     5   1    -0.16  -0.43   0.02    -0.01   0.03  -0.01    -0.31  -0.30   0.05
     6   1    -0.14  -0.04   0.39    -0.02   0.01  -0.05     0.05  -0.03   0.47
     7   9     0.20   0.11  -0.08     0.02   0.00   0.02    -0.16   0.03  -0.06
     8   8    -0.21   0.13   0.09     0.02  -0.05  -0.04     0.19   0.01   0.05
     9   1    -0.19   0.16   0.05    -0.46   0.69   0.55     0.03   0.04   0.29
                      4                      5                      6
                      A                      A                      A
 Frequencies --    483.0145               877.7594               926.0152
 Red. masses --      2.3149                 2.5124                 2.0242
 Frc consts  --      0.3182                 1.1405                 1.0227
 IR Inten    --     15.7508                16.0424                47.5676
  Atom  AN      X      Y      Z        X      Y      Z        X      Y      Z
     1   6    -0.12   0.13  -0.09    -0.16   0.16  -0.06     0.13  -0.04  -0.08
     2   1    -0.03   0.11   0.26    -0.50   0.06  -0.46     0.20  -0.08   0.34
     3   1    -0.45   0.34  -0.16     0.04  -0.19   0.01    -0.37   0.17  -0.15
     4   6    -0.11  -0.11  -0.10     0.14   0.14   0.08     0.13   0.07  -0.08
     5   1    -0.45  -0.30  -0.16     0.07  -0.14   0.03    -0.41  -0.19  -0.17
     6   1    -0.04  -0.10   0.25     0.44   0.01   0.34     0.33   0.04   0.45
     7   9     0.11  -0.03   0.06     0.07  -0.09  -0.02    -0.07   0.04   0.03
     8   8     0.10   0.04   0.05    -0.07  -0.09   0.01    -0.10  -0.08   0.06
     9   1     0.06  -0.24   0.16    -0.13  -0.12   0.10     0.00   0.11  -0.13
                      7                      8                      9
                      A                      A                      A
 Frequencies --   1074.5708              1110.4923              1123.0775
 Red. masses --      2.0445                 3.5203                 2.8656
 Frc consts  --      1.3909                 2.5578                 2.1295
 IR Inten    --     47.2440                37.0742                40.2357
  Atom  AN      X      Y      Z        X      Y      Z        X      Y      Z
     1   6     0.06   0.04   0.16     0.07   0.26   0.02     0.17   0.11  -0.13
     2   1    -0.06   0.04  -0.21     0.17   0.34  -0.45     0.19   0.05   0.21
     3   1     0.20  -0.31   0.22     0.40  -0.25   0.12     0.40   0.48  -0.14
     4   6    -0.14   0.11  -0.13     0.03  -0.24  -0.14    -0.16   0.08   0.11
     5   1    -0.43  -0.18  -0.21     0.21  -0.07  -0.09    -0.15   0.40   0.15
     6   1    -0.07   0.11   0.21     0.08  -0.27  -0.27    -0.20   0.03  -0.25
     7   9     0.05  -0.07  -0.01    -0.06   0.13   0.07     0.07  -0.08  -0.07
     8   8     0.01  -0.03   0.01    -0.06  -0.14   0.05    -0.09  -0.10   0.09
     9   1     0.20   0.43  -0.36    -0.05  -0.03  -0.01    -0.11  -0.16   0.12
                     10                     11                     12
                      A                      A                      A
 Frequencies --   1240.5874              1276.1985              1314.0722
 Red. masses --      1.1647                 1.1249                 1.0988
 Frc consts  --      1.0561                 1.0794                 1.1180
 IR Inten    --     13.2349                36.3689                17.7818
  Atom  AN      X      Y      Z        X      Y      Z        X      Y      Z
     1   6     0.01  -0.02   0.02    -0.01   0.00   0.06    -0.01  -0.04   0.05
     2   1    -0.10  -0.10   0.08     0.63   0.32  -0.06    -0.23  -0.15   0.10
     3   1     0.53   0.27   0.04    -0.12  -0.28   0.09     0.39   0.10   0.08
     4   6     0.02   0.04  -0.09     0.00   0.05   0.00     0.00  -0.02  -0.02
     5   1     0.21  -0.42  -0.15    -0.21   0.08  -0.01    -0.47   0.26  -0.02
     6   1    -0.24   0.23   0.18     0.01   0.05   0.07     0.52  -0.34  -0.10
     7   9    -0.01  -0.01   0.03     0.00  -0.01  -0.01     0.01   0.03  -0.01
     8   8    -0.02   0.02  -0.01    -0.01  -0.00  -0.06    -0.00   0.03  -0.02
     9   1    -0.17  -0.32   0.28    -0.21  -0.41   0.33    -0.08  -0.17   0.15
                     13                     14                     15
                      A                      A                      A
 Frequencies --   1419.3406              1466.4997              1500.1739
 Red. masses --      1.2669                 1.5253                 1.0903
 Frc consts  --      1.5037                 1.9327                 1.4457
 IR Inten    --     10.6163                 3.8865                 6.4445
  Atom  AN      X      Y      Z        X      Y      Z        X      Y      Z
     1   6    -0.05  -0.04  -0.03     0.17   0.01   0.07    -0.01   0.02  -0.01
     2   1     0.37   0.12   0.12    -0.40  -0.18  -0.29    -0.08  -0.05   0.16
     3   1     0.16   0.06  -0.02    -0.56   0.03  -0.03     0.11  -0.16   0.03
     4   6    -0.12   0.05  -0.03    -0.10   0.01  -0.03     0.00  -0.06  -0.06
     5   1     0.55  -0.11   0.03     0.32  -0.00   0.02     0.15   0.65   0.09
     6   1     0.56  -0.28   0.21     0.21  -0.15   0.11    -0.14   0.15   0.65
     7   9     0.01   0.01   0.01     0.01   0.00   0.00     0.00  -0.01  -0.01
     8   8     0.01  -0.01   0.02    -0.02   0.02  -0.04     0.00   0.00  -0.00
     9   1     0.07   0.12  -0.10    -0.17  -0.30   0.25    -0.01  -0.01   0.01
                     16                     17                     18
                      A                      A                      A
 Frequencies --   1505.1217              2963.1866              3013.8803
 Red. masses --      1.1009                 1.0630                 1.0886
 Frc consts  --      1.4694                 5.4995                 5.8259
 IR Inten    --      4.0611                49.4330                22.3655
  Atom  AN      X      Y      Z        X      Y      Z        X      Y      Z
     1   6    -0.03  -0.06   0.05     0.03  -0.06   0.02     0.02  -0.03  -0.07
     2   1     0.15   0.16  -0.64    -0.38   0.83   0.15    -0.11   0.24   0.03
     3   1    -0.03   0.67  -0.07     0.06  -0.06  -0.34    -0.10   0.12   0.86
     4   6     0.02  -0.02  -0.01     0.00   0.01   0.00     0.01   0.01   0.02
     5   1    -0.08   0.20   0.02     0.01   0.01  -0.04     0.04   0.06  -0.30
     6   1    -0.03   0.04   0.16    -0.06  -0.11   0.02    -0.13  -0.22   0.04
     7   9    -0.00  -0.00  -0.00    -0.00   0.00   0.00    -0.00   0.00   0.00
     8   8     0.00  -0.01   0.02    -0.00  -0.00   0.00     0.00   0.00   0.00
     9   1     0.04   0.07  -0.06    -0.00  -0.00   0.00    -0.00   0.01  -0.00
                     19                     20                     21
                      A                      A                      A
 Frequencies --   3027.2052              3077.4667              3836.4324
 Red. masses --      1.0657                 1.1070                 1.0664
 Frc consts  --      5.7541                 6.1768                 9.2477
 IR Inten    --     61.3657                40.6952                23.6448
  Atom  AN      X      Y      Z        X      Y      Z        X      Y      Z
     1   6     0.01  -0.02  -0.03     0.00   0.00  -0.01    -0.00   0.00  -0.00
     2   1    -0.10   0.21   0.03     0.00  -0.01  -0.00     0.00   0.00  -0.00
     3   1    -0.03   0.04   0.31    -0.01   0.02   0.11     0.00   0.00   0.00
     4   6    -0.03  -0.05  -0.03     0.03   0.05  -0.07     0.00  -0.00  -0.00
     5   1    -0.06  -0.10   0.49    -0.08  -0.14   0.79     0.00  -0.00   0.00
     6   1     0.37   0.66  -0.12    -0.28  -0.49   0.07    -0.00   0.00   0.00
     7   9     0.00  -0.00  -0.00    -0.00  -0.00   0.00     0.00  -0.00   0.00
     8   8     0.00   0.00   0.00    -0.00  -0.00   0.00    -0.05  -0.01  -0.03
     9   1    -0.00   0.00  -0.00    -0.00  -0.00  -0.00     0.83   0.10   0.55

 -------------------
 - Thermochemistry -
 -------------------
 Temperature   298.150 Kelvin.  Pressure   1.00000 Atm.
 Atom     1 has atomic number  6 and mass  12.00000
 Atom     2 has atomic number  1 and mass   1.00783
 Atom     3 has atomic number  1 and mass   1.00783
 Atom     4 has atomic number  6 and mass  12.00000
 Atom     5 has atomic number  1 and mass   1.00783
 Atom     6 has atomic number  1 and mass   1.00783
 Atom     7 has atomic number  9 and mass  18.99840
 Atom     8 has atomic number  8 and mass  15.99491
 Atom     9 has atomic number  1 and mass   1.00783
 Molecular mass:    64.03244 amu.
 Principal axes and moments of inertia in atomic units:
                           1         2         3
     Eigenvalues --   101.19680 371.46481 412.74449
           X            0.99909   0.02663   0.03325
           Y           -0.02673   0.99964   0.00248
           Z           -0.03317  -0.00337   0.99944
 This molecule is an asymmetric top.
 Rotational symmetry number  1.
 Rotational temperatures (Kelvin)      0.85590     0.23317     0.20985
 Rotational constants (GHZ):          17.83398     4.85844     4.37254
 Zero-point vibrational energy     190975.6 (Joules/Mol)
                                   45.64426 (Kcal/Mol)
 Warning -- explicit consideration of   4 degrees of freedom as
           vibrations may cause significant error
 Vibrational temperatures:    186.58   326.51   484.75   694.95  1262.90
          (Kelvin)           1332.33  1546.07  1597.75  1615.86  1784.93
                             1836.16  1890.66  2042.11  2109.97  2158.42
                             2165.53  4263.36  4336.30  4355.47  4427.79
                             5519.77
 
 Zero-point correction=                           0.072739 (Hartree/Particle)
 Thermal correction to Energy=                    0.077625
 Thermal correction to Enthalpy=                  0.078569
 Thermal correction to Gibbs Free Energy=         0.045293
 Sum of electronic and zero-point Energies=           -254.208068
 Sum of electronic and thermal Energies=              -254.203182
 Sum of electronic and thermal Enthalpies=            -254.202238
 Sum of electronic and thermal Free Energies=         -254.235513
 
                     E (Thermal)             CV                S
                      KCal/Mol        Cal/Mol-Kelvin    Cal/Mol-Kelvin
 Total                   48.710             15.219             70.034
 Electronic               0.000              0.000              0.000
 Translational            0.889              2.981             38.389
 Rotational               0.889              2.981             24.254
 Vibrational             46.933              9.258              7.391
 Vibration     1          0.612              1.924              2.951
 Vibration     2          0.651              1.800              1.903
 Vibration     3          0.718              1.602              1.227
 Vibration     4          0.839              1.288              0.702
                       Q            Log10(Q)             Ln(Q)
 Total Bot       0.146750D-20        -20.833421        -47.970724
 Total V=0       0.420783D+13         12.624058         29.067968
 Vib (Bot)       0.163417D-32        -32.786703        -75.494174
 Vib (Bot)    1  0.157216D+01          0.196498          0.452452
 Vib (Bot)    2  0.869066D+00         -0.060947         -0.140336
 Vib (Bot)    3  0.552202D+00         -0.257902         -0.593841
 Vib (Bot)    4  0.345359D+00         -0.461729         -1.063171
 Vib (V=0)       0.468571D+01          0.670776          1.544518
 Vib (V=0)    1  0.214976D+01          0.332389          0.765355
 Vib (V=0)    2  0.150263D+01          0.176853          0.407220
 Vib (V=0)    3  0.124493D+01          0.095146          0.219083
 Vib (V=0)    4  0.110768D+01          0.044414          0.102266
 Electronic      0.100000D+01          0.000000          0.000000
 Translational   0.201397D+08          7.304054         16.818206
 Rotational      0.445891D+05          4.649228         10.705244
 ***** Axes restored to original set *****
 -------------------------------------------------------------------
 Center     Atomic                   Forces (Hartrees/Bohr)
 Number     Number              X              Y              Z
 -------------------------------------------------------------------
      1        6          -0.000914641    0.001048675    0.001889369
      2        1          -0.000007882   -0.000000650   -0.000004781
      3        1           0.000008272    0.000001329   -0.000000665
      4        6           0.000991785    0.001147558   -0.001918528
      5        1           0.000007953   -0.000000667    0.000000640
      6        1           0.000008555   -0.000003000   -0.000003610
      7        9          -0.000652625   -0.001104213    0.001200312
      8        8           0.000561853   -0.001093359   -0.001156073
      9        1          -0.000003269    0.000004328   -0.000006664
 -------------------------------------------------------------------
 Cartesian Forces:  Max     0.001918528 RMS     0.000803263

 GradGradGradGradGradGradGradGradGradGradGradGradGradGradGradGradGradGrad
 Berny optimization.
 Search for a local minimum.
 Step number   1 out of a maximum of    2
 All quantities printed in internal units (Hartrees-Bohrs-Radians)
 Second derivative matrix not updated -- analytic derivatives used.
 ITU=  0
     Eigenvalues ---    0.00214   0.00371   0.01875   0.02615   0.05392
     Eigenvalues ---    0.06598   0.07931   0.08440   0.10998   0.11959
     Eigenvalues ---    0.15503   0.16334   0.20372   0.30004   0.46887
     Eigenvalues ---    0.66950   0.72187   0.75842   0.79714   0.85652
     Eigenvalues ---    1.04688
 Quadratic step=5.534D-01 exceeds max=3.000D-01 adjusted using Lamda=-2.169D-03.
 Angle between NR and scaled steps=   6.99 degrees.
 Angle between quadratic step and forces=  66.26 degrees.
 Linear search not attempted -- first point.
 B after Tr=    -0.004804   -0.018890    0.006090
         Rot=    0.999992    0.001367    0.003584    0.001430 Ang=   0.47 deg.
 Variable       Old X    -DE/DX   Delta X   Delta X   Delta X     New X
                                 (Linear)    (Quad)   (Total)
    X1       -1.22476  -0.00091   0.00000  -0.00766  -0.00527  -1.23003
    Y1        0.96518   0.00105   0.00000   0.02983   0.01280   0.97798
    Z1       -0.62042   0.00189   0.00000   0.01963   0.01419  -0.60623
    X2       -2.04119  -0.00001   0.00000  -0.04024  -0.03530  -2.07649
    Y2        2.85940  -0.00000   0.00000   0.00095  -0.01260   2.84681
    Z2       -0.31992  -0.00000   0.00000   0.11385   0.09723  -0.22270
    X3       -0.95364   0.00001   0.00000  -0.03150  -0.01482  -0.96846
    Y3        0.70633   0.00000   0.00000   0.12474   0.10134   0.80768
    Z3       -2.66505  -0.00000   0.00000   0.00315  -0.00001  -2.66506
    X4        1.34163   0.00099   0.00000   0.00776   0.00104   1.34267
    Y4        0.87961   0.00115   0.00000   0.02882   0.00780   0.88740
    Z4        0.64537  -0.00192   0.00000  -0.01969  -0.00641   0.63896
    X5        1.10746   0.00001   0.00000   0.03193   0.00985   1.11732
    Y5        0.54857  -0.00000   0.00000   0.12733   0.11253   0.66110
    Z5        2.67748   0.00000   0.00000   0.00009   0.01243   2.68992
    X6        2.32958   0.00001   0.00000   0.04487   0.04594   2.37552
    Y6        2.68059  -0.00000   0.00000  -0.00706  -0.03207   2.64852
    Z6        0.35858  -0.00000   0.00000  -0.11723  -0.10140   0.25718
    X7        2.80547  -0.00065   0.00000  -0.06538  -0.07121   2.73426
    Y7       -1.02506  -0.00110   0.00000  -0.06543  -0.09296  -1.11801
    Z7       -0.36185   0.00120   0.00000   0.05770   0.08642  -0.27543
    X8       -2.76586   0.00056   0.00000   0.05843   0.04798  -2.71788
    Y8       -0.94141  -0.00109   0.00000  -0.06286  -0.07294  -1.01435
    Z8        0.45190  -0.00116   0.00000  -0.05591  -0.06651   0.38539
    X9       -4.26581  -0.00000   0.00000   0.02557   0.02178  -4.24403
    Y9       -1.10684   0.00000   0.00000  -0.01553  -0.02390  -1.13074
    Z9       -0.55939  -0.00001   0.00000  -0.01469  -0.03594  -0.59533
         Item               Value     Threshold  Converged?
 Maximum Force            0.001919     0.000450     NO 
 RMS     Force            0.000803     0.000300     NO 
 Maximum Displacement     0.112531     0.001800     NO 
 RMS     Displacement     0.055692     0.001200     NO 
 Predicted change in Energy=-3.504070D-04
 GradGradGradGradGradGradGradGradGradGradGradGradGradGradGradGradGradGrad


 ----------------------------------------------------------------------

 Electric dipole moment (input orientation):
 (Debye = 10**-18 statcoulomb cm , SI units = C m)
                  (au)            (Debye)         (10**-30 SI)
   Tot        0.934800D+00      0.237602D+01      0.792557D+01
   x         -0.575924D+00     -0.146385D+01     -0.488289D+01
   y          0.683361D+00      0.173693D+01      0.579377D+01
   z         -0.274190D+00     -0.696922D+00     -0.232468D+01

 Dipole polarizability, Alpha (input orientation).
 (esu units = cm**3 , SI units = C**2 m**2 J**-1)
 Alpha(0;0):
               (au)            (10**-24 esu)      (10**-40 SI)
   iso        0.285717D+02      0.423388D+01      0.471083D+01
   aniso      0.498924D+01      0.739329D+00      0.822615D+00
   xx         0.309758D+02      0.459014D+01      0.510722D+01
   yx         0.161071D+01      0.238682D+00      0.265570D+00
   yy         0.278174D+02      0.412211D+01      0.458647D+01
   zx         0.106570D+01      0.157921D+00      0.175711D+00
   zy        -0.179164D+00     -0.265494D-01     -0.295402D-01
   zz         0.269218D+02      0.398941D+01      0.443881D+01

 ----------------------------------------------------------------------

 Dipole orientation:
     6         -0.14696285          0.31367402          1.64211398
     1         -0.24927751         -0.73321311          3.44169552
     1          1.21412770          1.86582671          1.88557814
     6          0.85657956         -1.45514341         -0.37285254
     1         -0.67611117         -2.66486652         -1.06662785
     1          2.35844020         -2.64635295          0.41915570
     9          1.84807402         -0.11093980         -2.37164128
     8         -2.56036201          1.18524535          0.88328821
     1         -3.05465452          2.54392788          1.98309332

 Electric dipole moment (dipole orientation):
 (Debye = 10**-18 statcoulomb cm , SI units = C m)
                  (au)            (Debye)         (10**-30 SI)
   Tot        0.934800D+00      0.237602D+01      0.792557D+01
   x          0.000000D+00      0.000000D+00      0.000000D+00
   y          0.000000D+00      0.000000D+00      0.000000D+00
   z          0.934800D+00      0.237602D+01      0.792557D+01

 Dipole polarizability, Alpha (dipole orientation).
 (esu units = cm**3 , SI units = C**2 m**2 J**-1)
 Alpha(0;0):
               (au)            (10**-24 esu)      (10**-40 SI)
   iso        0.285717D+02      0.423388D+01      0.471083D+01
   aniso      0.498924D+01      0.739329D+00      0.822615D+00
   xx         0.289957D+02      0.429672D+01      0.478075D+01
   yx        -0.238444D+01     -0.353337D+00     -0.393140D+00
   yy         0.287690D+02      0.426312D+01      0.474336D+01
   zx        -0.767634D+00     -0.113752D+00     -0.126566D+00
   zy         0.131160D+01      0.194360D+00      0.216254D+00
   zz         0.279503D+02      0.414181D+01      0.460838D+01

 ----------------------------------------------------------------------
 Unable to Open any file for archive entry.
 1\1\GINC-COMPUTE-2-3\Freq\RB3LYP\6-31G(2df,p)\C2H5F1O1\JINGDAN2\05-Dec
 -2024\0\\# freq b3lyp/6-31g(2df,p)\\energy: -15.614184499692 gnorm: 0.
 000439253721 xtb: 6.6.1 (8d0f1dd)\\0,1\C,-0.648115,0.510752,-0.32831\H
 ,-1.080153,1.513131,-0.169297\H,-0.504647,0.373776,-1.410282\C,0.70996
 ,0.465469,0.341517\H,0.586045,0.290292,1.416864\H,1.232763,1.418508,0.
 189753\F,1.484593,-0.542438,-0.191483\O,-1.463631,-0.498173,0.239135\H
 ,-2.25737,-0.585712,-0.296015\\Version=ES64L-G16RevC.01\State=1-A\HF=-
 254.2808067\RMSD=3.403e-09\RMSF=8.033e-04\ZeroPoint=0.0727388\Thermal=
 0.0776246\ETot=-254.2031821\HTot=-254.2022379\GTot=-254.2355135\Dipole
 =-0.5759244,0.6833607,-0.2741904\DipoleDeriv=0.4519877,0.2638441,-0.13
 76189,0.1891066,0.6145769,-0.0685071,-0.2212458,-0.0430613,0.3166697,-
 0.0518904,0.057676,0.0106771,0.0292419,-0.2154878,-0.0079206,0.0414362
 ,-0.036007,0.0213378,-0.0205349,-0.0219645,0.0279869,-0.0492924,0.0016
 34,-0.0401185,0.0448736,0.0116222,-0.1752767,0.5959153,-0.2653411,-0.0
 936766,-0.2103064,0.6737154,0.1151715,-0.1450913,0.0855945,0.4276765,0
 .0123644,0.0222357,0.0170942,0.0328417,0.0167973,0.0535838,0.0172228,-
 0.0005958,-0.131623,-0.0562223,-0.0707077,0.0113159,-0.0563511,-0.1375
 496,0.0012223,0.0386027,0.0394368,0.0331884,-0.5261442,0.2718639,0.075
 5687,0.2995367,-0.5550453,-0.127347,0.1246269,-0.1593601,-0.3146092,-0
 .6022842,-0.2421969,0.1716086,-0.2411726,-0.6981494,0.030099,0.1919688
 ,0.0684916,-0.3984106,0.1968085,-0.0154094,-0.0829559,0.0063955,0.2995
 084,0.0438166,-0.0923938,0.033879,0.2210473\Polar=30.9757803,1.6107057
 ,27.8173877,1.0657037,-0.179164,26.9218408\Quadrupole=0.6363031,-0.612
 0542,-0.0242489,1.1180421,2.2900809,0.4212541\PG=C01 [X(C2H5F1O1)]\NIm
 ag=0\\0.49926843,-0.03211629,0.53097911,-0.00116377,0.02920493,0.56780
 241,-0.09605369,0.09120095,0.01347581,0.10254592,0.09185536,-0.2292024
 3,-0.03784427,-0.09212519,0.26595611,0.01649470,-0.03818357,-0.0616583
 2,-0.02024400,0.03369929,0.05762024,-0.05313676,0.00519984,0.02468424,
 0.00063764,0.00501525,0.01457217,0.05730222,0.00316700,-0.05830241,-0.
 04500561,0.00219952,-0.00371737,-0.02755091,0.00139208,0.06163777,0.02
 455320,-0.03904574,-0.28235071,-0.00071330,-0.00229530,-0.00446502,-0.
 03254224,0.03686271,0.31219358,-0.16532656,-0.01001795,-0.05418853,-0.
 00846962,0.00108045,-0.00586875,0.00252069,0.00330881,0.00157129,0.499
 39000,0.00819066,-0.07009016,0.00565361,0.02544875,-0.00300208,0.01262
 401,-0.00412021,0.00047288,-0.00475001,0.05254118,0.54915276,-0.056849
 65,-0.00174705,-0.11487912,0.01002655,-0.00222279,0.00344540,-0.033009
 22,0.00091280,-0.01820849,-0.02157799,-0.03406273,0.57682413,0.0022261
 0,0.00453902,-0.03244757,0.00069068,0.00010649,0.00084265,-0.00564260,
 -0.00045040,-0.00246600,-0.05296536,-0.00552111,0.02122345,0.05761268,
 -0.00311628,0.00253840,0.00138589,-0.00082870,-0.00021642,-0.00030397,
 0.00093655,0.00051036,-0.00036799,-0.00692251,-0.06301424,0.05704010,-
 0.00149079,0.06566679,0.00060357,0.00538250,-0.01641867,-0.00113671,0.
 00007001,-0.00023770,-0.00225756,0.00060986,-0.00014906,0.02234109,0.0
 4844671,-0.29108400,-0.03033071,-0.04634021,0.32027002,-0.01032640,-0.
 02441869,0.00924180,0.00000140,0.00035205,0.00073114,0.00069799,0.0004
 7285,-0.00091235,-0.11738518,-0.11176768,0.01877024,0.00075477,-0.0018
 9742,-0.00118172,0.12447875,0.00021962,0.00044854,0.00182126,-0.000334
 68,0.00132197,-0.00038436,-0.00010835,-0.00023371,0.00003897,-0.107885
 77,-0.22496997,0.03512032,-0.00554665,-0.00280592,0.00183156,0.1104098
 2,0.26064067,-0.00809572,-0.01286334,0.00404521,0.00088475,0.00037388,
 0.00063712,0.00082029,-0.00002843,0.00005724,0.02090687,0.03958284,-0.
 06301019,0.01593162,0.02589383,-0.00259000,-0.02337603,-0.03183759,0.0
 5744335,-0.02740183,0.04285164,0.01665458,-0.00840857,-0.00025773,-0.0
 0364838,0.00352710,-0.00102514,0.00156667,-0.12450199,0.07871492,0.044
 60378,-0.00642319,0.01262518,0.00974249,0.00961352,0.00261624,-0.00354
 127,0.15092497,0.01471236,-0.01600291,-0.00411971,0.00282615,0.0018380
 9,0.00120880,-0.00107897,0.00066434,0.00064181,0.07892272,-0.17607041,
 -0.05780315,0.00736802,-0.00292395,-0.00982333,0.02829955,-0.03589463,
 -0.02065655,-0.13335844,0.22359498,-0.00444135,0.00689279,0.00712272,-
 0.00348145,0.00054956,0.00024317,0.00237323,0.00104604,0.00341962,0.04
 489146,-0.05744229,-0.10011488,0.02522192,-0.03617902,-0.01245347,0.00
 075957,-0.00665548,0.00380116,-0.06559750,0.09098575,0.09717213,-0.127
 63632,-0.07817216,0.03998077,0.00762474,-0.00685527,-0.00229255,-0.007
 57549,-0.01102594,0.00945282,-0.03068823,-0.03744912,0.01432901,0.0032
 0419,0.00075694,0.00162387,-0.00653507,0.00035667,-0.00299279,0.002010
 31,0.00187568,0.00008952,0.50975653,-0.05380578,-0.15396995,0.06656554
 ,-0.02799842,-0.03299185,0.01956601,-0.00765986,-0.00242653,0.00791593
 ,-0.00860095,-0.00805084,0.00022075,0.00070051,0.00029541,-0.00026986,
 -0.00023186,0.00114756,0.00010722,-0.00232425,0.00465654,0.00075599,0.
 15653838,0.21643845,0.00683295,0.04324184,-0.10992357,0.00147755,0.006
 81836,0.00459193,0.02435002,0.03297025,-0.01156287,-0.00938949,-0.0126
 1412,0.00848469,0.00182952,-0.00115745,0.00205387,-0.00472900,-0.00007
 954,-0.00125183,0.00024536,0.00000043,0.00082647,0.19332181,-0.0771811
 2,0.29341059,-0.02161297,0.00093364,-0.01623733,0.00143150,0.00082860,
 -0.00058698,0.00166921,0.00196121,-0.00051009,-0.00257375,-0.00603739,
 0.00248384,0.00054274,-0.00006297,0.00059569,-0.00129979,0.00027311,-0
 .00053772,0.00065968,0.00043293,0.00018461,-0.35016065,-0.05661776,-0.
 21393872,0.37134403,-0.02910665,-0.00639819,-0.01766162,-0.00038838,0.
 00001398,-0.00067530,0.00042368,0.00139466,0.00099962,-0.00242600,-0.0
 0442795,0.00254175,0.00029492,-0.00005043,0.00009274,-0.00121863,0.000
 34549,-0.00057186,0.00015759,0.00013795,0.00004665,-0.02602518,-0.0250
 9879,0.00800134,0.05828864,0.03408330,0.02206608,0.00711765,0.00626004
 ,-0.00028919,0.00085126,-0.00017680,0.00100908,0.00018328,0.00106572,0
 .00131404,0.00256197,-0.00145755,0.00019514,0.00002883,0.00060900,0.00
 069636,0.00014485,0.00086795,-0.00002573,-0.00043407,-0.00001691,-0.25
 351247,-0.01768046,-0.18662927,0.22854670,0.00722668,0.17947781\\0.000
 91464,-0.00104868,-0.00188937,0.00000788,0.00000065,0.00000478,-0.0000
 0827,-0.00000133,0.00000067,-0.00099178,-0.00114756,0.00191853,-0.0000
 0795,0.00000067,-0.00000064,-0.00000856,0.00000300,0.00000361,0.000652
 63,0.00110421,-0.00120031,-0.00056185,0.00109336,0.00115607,0.00000327
 ,-0.00000433,0.00000666\\\@
 The archive entry for this job was punched.


 CONFIDENCE: THAT QUIET ASSURED FEELING YOU HAVE
 JUST BEFORE YOU FALL FLAT ON YOUR FACE.
 Job cpu time:       0 days  0 hours  7 minutes  0.4 seconds.
 Elapsed time:       0 days  0 hours  0 minutes 53.7 seconds.
 File lengths (MBytes):  RWF=     21 Int=      0 D2E=      0 Chk=      2 Scr=      1
 Normal termination of Gaussian 16 at Thu Dec  5 18:23:43 2024.
