 Entering Gaussian System, Link 0=g16
 Input=rotation_std29.gjf
 Output=rotation_std29.log
 Initial command:
 /share/apps/gaussian/g16/l1.exe "/scratch/jingdan2/247457/Gau-452719.inp" -scrdir="/scratch/jingdan2/247457/"
 Entering Link 1 = /share/apps/gaussian/g16/l1.exe PID=    452725.
  
 Copyright (c) 1988-2019, Gaussian, Inc.  All Rights Reserved.
  
 This is part of the Gaussian(R) 16 program.  It is based on
 the Gaussian(R) 09 system (copyright 2009, Gaussian, Inc.),
 the Gaussian(R) 03 system (copyright 2003, Gaussian, Inc.),
 the Gaussian(R) 98 system (copyright 1998, Gaussian, Inc.),
 the Gaussian(R) 94 system (copyright 1995, Gaussian, Inc.),
 the Gaussian 92(TM) system (copyright 1992, Gaussian, Inc.),
 the Gaussian 90(TM) system (copyright 1990, Gaussian, Inc.),
 the Gaussian 88(TM) system (copyright 1988, Gaussian, Inc.),
 the Gaussian 86(TM) system (copyright 1986, Carnegie Mellon
 University), and the Gaussian 82(TM) system (copyright 1983,
 Carnegie Mellon University). Gaussian is a federally registered
 trademark of Gaussian, Inc.
  
 This software contains proprietary and confidential information,
 including trade secrets, belonging to Gaussian, Inc.
  
 This software is provided under written license and may be
 used, copied, transmitted, or stored only in accord with that
 written license.
  
 The following legend is applicable only to US Government
 contracts under FAR:
  
                    RESTRICTED RIGHTS LEGEND
  
 Use, reproduction and disclosure by the US Government is
 subject to restrictions as set forth in subparagraphs (a)
 and (c) of the Commercial Computer Software - Restricted
 Rights clause in FAR 52.227-19.
  
 Gaussian, Inc.
 340 Quinnipiac St., Bldg. 40, Wallingford CT 06492
  
  
 ---------------------------------------------------------------
 Warning -- This program may not be used in any manner that
 competes with the business of Gaussian, Inc. or will provide
 assistance to any competitor of Gaussian, Inc.  The licensee
 of this program is prohibited from giving any competitor of
 Gaussian, Inc. access to this program.  By using this program,
 the user acknowledges that Gaussian, Inc. is engaged in the
 business of creating and licensing software in the field of
 computational chemistry and represents and warrants to the
 licensee that it is not a competitor of Gaussian, Inc. and that
 it will not use this program in any manner prohibited above.
 ---------------------------------------------------------------
  

 Cite this work as:
 Gaussian 16, Revision C.01,
 M. J. Frisch, G. W. Trucks, H. B. Schlegel, G. E. Scuseria, 
 M. A. Robb, J. R. Cheeseman, G. Scalmani, V. Barone, 
 G. A. Petersson, H. Nakatsuji, X. Li, M. Caricato, A. V. Marenich, 
 J. Bloino, B. G. Janesko, R. Gomperts, B. Mennucci, H. P. Hratchian, 
 J. V. Ortiz, A. F. Izmaylov, J. L. Sonnenberg, D. Williams-Young, 
 F. Ding, F. Lipparini, F. Egidi, J. Goings, B. Peng, A. Petrone, 
 T. Henderson, D. Ranasinghe, V. G. Zakrzewski, J. Gao, N. Rega, 
 G. Zheng, W. Liang, M. Hada, M. Ehara, K. Toyota, R. Fukuda, 
 J. Hasegawa, M. Ishida, T. Nakajima, Y. Honda, O. Kitao, H. Nakai, 
 T. Vreven, K. Throssell, J. A. Montgomery, Jr., J. E. Peralta, 
 F. Ogliaro, M. J. Bearpark, J. J. Heyd, E. N. Brothers, K. N. Kudin, 
 V. N. Staroverov, T. A. Keith, R. Kobayashi, J. Normand, 
 K. Raghavachari, A. P. Rendell, J. C. Burant, S. S. Iyengar, 
 J. Tomasi, M. Cossi, J. M. Millam, M. Klene, C. Adamo, R. Cammi, 
 J. W. Ochterski, R. L. Martin, K. Morokuma, O. Farkas, 
 J. B. Foresman, and D. J. Fox, Gaussian, Inc., Wallingford CT, 2019.
 
 ******************************************
 Gaussian 16:  ES64L-G16RevC.01  3-Jul-2019
                 5-Dec-2024 
 ******************************************
 %nprocshared=8
 Will use up to    8 processors via shared memory.
 %mem=8GB
 -------------------------
 # freq b3lyp/6-31g(2df,p)
 -------------------------
 1/10=4,30=1,38=1/1,3;
 2/12=2,17=6,18=5,40=1/2;
 3/5=1,6=6,7=104,11=2,25=1,30=1,71=2,74=-5,140=1/1,2,3;
 4//1;
 5/5=2,38=5,98=1/2;
 8/6=4,10=90,11=11/1;
 11/6=1,8=1,9=11,15=111,16=1/1,2,10;
 10/6=1/2;
 6/7=2,8=2,9=2,10=2,28=1/1;
 7/8=1,10=1,25=1/1,2,3,16;
 1/10=4,30=1/3;
 99//99;
 -------------------------------------------------------------------
 energy: -15.614184499692 gnorm: 0.000439253721 xtb: 6.6.1 (8d0f1dd)
 -------------------------------------------------------------------
 Symbolic Z-matrix:
 Charge =  0 Multiplicity = 1
 C                    -0.62559   0.43772  -0.37894 
 H                    -1.00065   1.47358  -0.39101 
 H                    -0.40312   0.14782  -1.41582 
 C                     0.67842   0.38259   0.40843 
 H                     0.47504   0.01177   1.41925 
 H                     1.13087   1.37937   0.47526 
 F                     1.59186  -0.44814  -0.20854 
 O                    -1.56305  -0.42709   0.24155 
 H                    -2.34149  -0.48438  -0.32018 
 

 GradGradGradGradGradGradGradGradGradGradGradGradGradGradGradGradGradGrad
 Berny optimization.
 Initialization pass.
 Trust Radius=3.00D-01 FncErr=1.00D-07 GrdErr=1.00D-07 EigMax=2.50D+02 EigMin=1.00D-04
 Number of steps in this run=      2 maximum allowed number of steps=      2.
 GradGradGradGradGradGradGradGradGradGradGradGradGradGradGradGradGradGrad

                          Input orientation:                          
 ---------------------------------------------------------------------
 Center     Atomic      Atomic             Coordinates (Angstroms)
 Number     Number       Type             X           Y           Z
 ---------------------------------------------------------------------
      1          6           0       -0.625586    0.437721   -0.378937
      2          1           0       -1.000654    1.473580   -0.391011
      3          1           0       -0.403121    0.147821   -1.415822
      4          6           0        0.678417    0.382589    0.408427
      5          1           0        0.475040    0.011773    1.419249
      6          1           0        1.130870    1.379374    0.475259
      7          9           0        1.591861   -0.448141   -0.208541
      8          8           0       -1.563047   -0.427094    0.241554
      9          1           0       -2.341488   -0.484382   -0.320175
 ---------------------------------------------------------------------
                    Distance matrix (angstroms):
                    1          2          3          4          5
     1  C    0.000000
     2  H    1.101738   0.000000
     3  H    1.099392   1.779022   0.000000
     4  C    1.524272   2.156071   2.133712   0.000000
     5  H    2.150879   2.755285   2.971078   1.095732   0.000000
     6  H    2.168294   2.302758   2.728743   1.096704   1.786495
     7  F    2.393921   3.232250   2.406793   1.380269   2.026946
     8  O    1.418361   2.080622   2.103057   2.389057   2.394445
     9  H    1.948858   2.374125   2.314604   3.225264   3.347327
                    6          7          8          9
     6  H    0.000000
     7  F    2.004970   0.000000
     8  O    3.251943   3.186922   0.000000
     9  H    4.020394   3.935100   0.961661   0.000000
 Stoichiometry    C2H5FO
 Framework group  C1[X(C2H5FO)]
 Deg. of freedom    21
 Full point group                 C1      NOp   1
 Largest Abelian subgroup         C1      NOp   1
 Largest concise Abelian subgroup C1      NOp   1
                         Standard orientation:                         
 ---------------------------------------------------------------------
 Center     Atomic      Atomic             Coordinates (Angstroms)
 Number     Number       Type             X           Y           Z
 ---------------------------------------------------------------------
      1          6           0       -0.625586    0.437721   -0.378937
      2          1           0       -1.000654    1.473580   -0.391011
      3          1           0       -0.403121    0.147821   -1.415822
      4          6           0        0.678417    0.382589    0.408427
      5          1           0        0.475040    0.011773    1.419249
      6          1           0        1.130870    1.379374    0.475259
      7          9           0        1.591861   -0.448141   -0.208541
      8          8           0       -1.563047   -0.427094    0.241554
      9          1           0       -2.341488   -0.484382   -0.320175
 ---------------------------------------------------------------------
 Rotational constants (GHZ):          20.2999691           4.3759812           4.1917866
 Standard basis: 6-31G(2df,p) (6D, 7F)
 There are   149 symmetry adapted cartesian basis functions of A   symmetry.
 There are   137 symmetry adapted basis functions of A   symmetry.
   137 basis functions,   211 primitive gaussians,   149 cartesian basis functions
    17 alpha electrons       17 beta electrons
       nuclear repulsion energy       128.7468644149 Hartrees.
 NAtoms=    9 NActive=    9 NUniq=    9 SFac= 1.00D+00 NAtFMM=   60 NAOKFM=F Big=F
 Integral buffers will be    131072 words long.
 Raffenetti 2 integral format.
 Two-electron integral symmetry is turned on.
 One-electron integrals computed using PRISM.
 NBasis=   137 RedAO= T EigKep=  1.18D-03  NBF=   137
 NBsUse=   137 1.00D-06 EigRej= -1.00D+00 NBFU=   137
 ExpMin= 1.61D-01 ExpMax= 7.00D+03 ExpMxC= 1.05D+03 IAcc=3 IRadAn=         5 AccDes= 0.00D+00
 Harris functional with IExCor=  402 and IRadAn=       5 diagonalized for initial guess.
 HarFok:  IExCor=  402 AccDes= 0.00D+00 IRadAn=         5 IDoV= 1 UseB2=F ITyADJ=14
 ICtDFT=  3500011 ScaDFX=  1.000000  1.000000  1.000000  1.000000
 FoFCou: FMM=F IPFlag=           0 FMFlag=      100000 FMFlg1=           0
         NFxFlg=           0 DoJE=T BraDBF=F KetDBF=T FulRan=T
         wScrn=  0.000000 ICntrl=       500 IOpCl=  0 I1Cent=   200000004 NGrid=           0
         NMat0=    1 NMatS0=      1 NMatT0=    0 NMatD0=    1 NMtDS0=    0 NMtDT0=    0
 Petite list used in FoFCou.
 Keep R1 ints in memory in canonical form, NReq=52495207.
 Requested convergence on RMS density matrix=1.00D-08 within 128 cycles.
 Requested convergence on MAX density matrix=1.00D-06.
 Requested convergence on             energy=1.00D-06.
 No special actions if energy rises.
 Integral accuracy reduced to 1.0D-05 until final iterations.
 Initial convergence to 1.0D-05 achieved.  Increase integral accuracy.
 SCF Done:  E(RB3LYP) =  -254.278503814     A.U. after   12 cycles
            NFock= 12  Conv=0.26D-08     -V/T= 2.0063
 DoSCS=F DFT=T ScalE2(SS,OS)=  1.000000  1.000000
 Range of M.O.s used for correlation:     1   137
 NBasis=   137 NAE=    17 NBE=    17 NFC=     0 NFV=     0
 NROrb=    137 NOA=    17 NOB=    17 NVA=   120 NVB=   120

 **** Warning!!: The largest alpha MO coefficient is  0.18610544D+02

 Symmetrizing basis deriv contribution to polar:
 IMax=3 JMax=2 DiffMx= 0.00D+00
 G2DrvN: will do    10 centers at a time, making    1 passes.
 Calling FoFCou, ICntrl=  3107 FMM=F I1Cent=   0 AccDes= 0.00D+00.
 End of G2Drv F.D. properties file   721 does not exist.
 End of G2Drv F.D. properties file   722 does not exist.
 End of G2Drv F.D. properties file   788 does not exist.
          IDoAtm=111111111
          Differentiating once with respect to electric field.
                with respect to dipole field.
          Differentiating once with respect to nuclear coordinates.
 Keep R1 ints in memory in canonical form, NReq=52475930.
          There are    30 degrees of freedom in the 1st order CPHF.  IDoFFX=6 NUNeed=     3.
     27 vectors produced by pass  0 Test12= 6.80D-15 3.33D-09 XBig12= 1.51D+01 1.31D+00.
 AX will form    27 AO Fock derivatives at one time.
     27 vectors produced by pass  1 Test12= 6.80D-15 3.33D-09 XBig12= 9.45D-01 1.90D-01.
     27 vectors produced by pass  2 Test12= 6.80D-15 3.33D-09 XBig12= 1.42D-02 2.68D-02.
     27 vectors produced by pass  3 Test12= 6.80D-15 3.33D-09 XBig12= 4.36D-05 1.08D-03.
     27 vectors produced by pass  4 Test12= 6.80D-15 3.33D-09 XBig12= 6.51D-08 4.00D-05.
     14 vectors produced by pass  5 Test12= 6.80D-15 3.33D-09 XBig12= 5.84D-11 9.27D-07.
      3 vectors produced by pass  6 Test12= 6.80D-15 3.33D-09 XBig12= 4.80D-14 3.48D-08.
 InvSVY:  IOpt=1 It=  1 EMax= 4.44D-15
 Solved reduced A of dimension   152 with    30 vectors.
 Isotropic polarizability for W=    0.000000       28.45 Bohr**3.
 End of Minotr F.D. properties file   721 does not exist.
 End of Minotr F.D. properties file   722 does not exist.
 End of Minotr F.D. properties file   788 does not exist.

 **********************************************************************

            Population analysis using the SCF Density.

 **********************************************************************

 Orbital symmetries:
       Occupied  (A) (A) (A) (A) (A) (A) (A) (A) (A) (A) (A) (A)
                 (A) (A) (A) (A) (A)
       Virtual   (A) (A) (A) (A) (A) (A) (A) (A) (A) (A) (A) (A)
                 (A) (A) (A) (A) (A) (A) (A) (A) (A) (A) (A) (A)
                 (A) (A) (A) (A) (A) (A) (A) (A) (A) (A) (A) (A)
                 (A) (A) (A) (A) (A) (A) (A) (A) (A) (A) (A) (A)
                 (A) (A) (A) (A) (A) (A) (A) (A) (A) (A) (A) (A)
                 (A) (A) (A) (A) (A) (A) (A) (A) (A) (A) (A) (A)
                 (A) (A) (A) (A) (A) (A) (A) (A) (A) (A) (A) (A)
                 (A) (A) (A) (A) (A) (A) (A) (A) (A) (A) (A) (A)
                 (A) (A) (A) (A) (A) (A) (A) (A) (A) (A) (A) (A)
                 (A) (A) (A) (A) (A) (A) (A) (A) (A) (A) (A) (A)
 The electronic state is 1-A.
 Alpha  occ. eigenvalues --  -24.66247 -19.14080 -10.25146 -10.23506  -1.17753
 Alpha  occ. eigenvalues --   -1.02214  -0.74830  -0.62003  -0.53110  -0.49695
 Alpha  occ. eigenvalues --   -0.45579  -0.45392  -0.42266  -0.36369  -0.32965
 Alpha  occ. eigenvalues --   -0.32067  -0.27412
 Alpha virt. eigenvalues --    0.07129   0.10490   0.13088   0.14494   0.16552
 Alpha virt. eigenvalues --    0.19509   0.22129   0.22612   0.43637   0.45612
 Alpha virt. eigenvalues --    0.49598   0.50622   0.58114   0.61626   0.67671
 Alpha virt. eigenvalues --    0.69053   0.69172   0.73190   0.74911   0.78479
 Alpha virt. eigenvalues --    0.79930   0.82338   0.86461   0.89104   0.91667
 Alpha virt. eigenvalues --    0.95860   0.97202   1.00465   1.02358   1.05604
 Alpha virt. eigenvalues --    1.09172   1.11218   1.25700   1.28257   1.31900
 Alpha virt. eigenvalues --    1.37009   1.40353   1.43242   1.48426   1.57499
 Alpha virt. eigenvalues --    1.59961   1.60726   1.67915   1.70389   1.76522
 Alpha virt. eigenvalues --    1.89301   1.98458   2.06707   2.11848   2.19897
 Alpha virt. eigenvalues --    2.29289   2.41228   2.44677   2.51636   2.52948
 Alpha virt. eigenvalues --    2.55175   2.60649   2.66484   2.76538   2.81495
 Alpha virt. eigenvalues --    2.88038   2.92934   2.93938   3.00640   3.07260
 Alpha virt. eigenvalues --    3.20289   3.26672   3.33069   3.34455   3.38818
 Alpha virt. eigenvalues --    3.42230   3.46711   3.55664   3.61318   3.66870
 Alpha virt. eigenvalues --    3.87230   3.90554   3.99281   4.13718   4.15469
 Alpha virt. eigenvalues --    4.20068   4.23321   4.32904   4.40776   4.41797
 Alpha virt. eigenvalues --    4.44739   4.45761   4.50028   4.51821   4.59367
 Alpha virt. eigenvalues --    4.65252   4.65995   4.68743   4.69746   4.72468
 Alpha virt. eigenvalues --    4.79476   4.82529   4.85033   4.96240   5.22205
 Alpha virt. eigenvalues --    5.31988   5.40925   5.46986   5.55088   5.82436
 Alpha virt. eigenvalues --    5.92753   5.99984   6.04062   6.67265   6.67916
 Alpha virt. eigenvalues --    6.79279   6.80062   7.03754   7.25421   7.31093
 Alpha virt. eigenvalues --    7.32927   9.55597  10.92532  11.90955  13.15001
          Condensed to atoms (all electrons):
               1          2          3          4          5          6
     1  C    4.836408   0.336297   0.354318   0.370915  -0.044514  -0.039269
     2  H    0.336297   0.682534  -0.050193  -0.027073   0.003874  -0.000466
     3  H    0.354318  -0.050193   0.644546  -0.033658   0.006623   0.002817
     4  C    0.370915  -0.027073  -0.033658   4.675257   0.349862   0.345804
     5  H   -0.044514   0.003874   0.006623   0.349862   0.629782  -0.046635
     6  H   -0.039269  -0.000466   0.002817   0.345804  -0.046635   0.663157
     7  F   -0.036115   0.001892   0.003728   0.384799  -0.022812  -0.024386
     8  O    0.352909  -0.032932  -0.029731  -0.031982   0.004322   0.001982
     9  H   -0.048377  -0.002351  -0.005930   0.006020  -0.000248  -0.000346
               7          8          9
     1  C   -0.036115   0.352909  -0.048377
     2  H    0.001892  -0.032932  -0.002351
     3  H    0.003728  -0.029731  -0.005930
     4  C    0.384799  -0.031982   0.006020
     5  H   -0.022812   0.004322  -0.000248
     6  H   -0.024386   0.001982  -0.000346
     7  F    8.854534  -0.000119  -0.000077
     8  O   -0.000119   7.849662   0.304374
     9  H   -0.000077   0.304374   0.457473
 Mulliken charges:
               1
     1  C   -0.082572
     2  H    0.088418
     3  H    0.107481
     4  C   -0.039944
     5  H    0.119746
     6  H    0.097341
     7  F   -0.161445
     8  O   -0.418485
     9  H    0.289462
 Sum of Mulliken charges =  -0.00000
 Mulliken charges with hydrogens summed into heavy atoms:
               1
     1  C    0.113327
     4  C    0.177142
     7  F   -0.161445
     8  O   -0.129024
 APT charges:
               1
     1  C    0.448927
     2  H   -0.082967
     3  H   -0.058171
     4  C    0.556557
     5  H   -0.026239
     6  H   -0.054654
     7  F   -0.461917
     8  O   -0.560079
     9  H    0.238542
 Sum of APT charges =   0.00000
 APT charges with hydrogens summed into heavy atoms:
               1
     1  C    0.307789
     4  C    0.475664
     7  F   -0.461917
     8  O   -0.321536
 Electronic spatial extent (au):  <R**2>=            310.1617
 Charge=             -0.0000 electrons
 Dipole moment (field-independent basis, Debye):
    X=             -1.4939    Y=              1.4781    Z=             -0.6851  Tot=              2.2104
 Quadrupole moment (field-independent basis, Debye-Ang):
   XX=            -22.7152   YY=            -23.6026   ZZ=            -22.8311
   XY=              1.1758   XZ=              3.4280   YZ=              0.4967
 Traceless Quadrupole moment (field-independent basis, Debye-Ang):
   XX=              0.3344   YY=             -0.5530   ZZ=              0.2186
   XY=              1.1758   XZ=              3.4280   YZ=              0.4967
 Octapole moment (field-independent basis, Debye-Ang**2):
  XXX=            -11.2656  YYY=             -3.9433  ZZZ=             -0.8760  XYY=              1.7943
  XXY=             -1.7701  XXZ=             -4.8154  XZZ=              1.9847  YZZ=             -2.1450
  YYZ=             -0.3777  XYZ=             -1.1601
 Hexadecapole moment (field-independent basis, Debye-Ang**3):
 XXXX=           -193.7445 YYYY=            -59.6745 ZZZZ=            -49.9911 XXXY=              7.5758
 XXXZ=              9.0637 YYYX=             -2.0846 YYYZ=              1.0489 ZZZX=             -2.3972
 ZZZY=              0.6564 XXYY=            -45.9862 XXZZ=            -46.1959 YYZZ=            -19.2571
 XXYZ=              2.3857 YYXZ=             -0.4433 ZZXY=             -0.6036
 N-N= 1.287468644149D+02 E-N=-8.572398666116D+02  KE= 2.526775914319D+02
  Exact polarizability:      31.295       1.433      27.030       1.087      -0.234      27.029
 Approx polarizability:      39.053       0.997      37.153      -0.154      -0.417      37.143
 Calling FoFJK, ICntrl=    100127 FMM=F ISym2X=0 I1Cent= 0 IOpClX= 0 NMat=1 NMatS=1 NMatT=0.
 Full mass-weighted force constant matrix:
 Low frequencies ---  -67.2424  -30.8414   -2.5544   -0.0013   -0.0013   -0.0008
 Low frequencies ---   21.5047  253.1331  373.5816
 ******    1 imaginary frequencies (negative Signs) ****** 
 Diagonal vibrational polarizability:
       12.6608578      47.0148871      12.5721494
 Harmonic frequencies (cm**-1), IR intensities (KM/Mole), Raman scattering
 activities (A**4/AMU), depolarization ratios for plane and unpolarized
 incident light, reduced masses (AMU), force constants (mDyne/A),
 and normal coordinates:
                      1                      2                      3
                      A                      A                      A
 Frequencies --    -67.1631               253.1291               373.5791
 Red. masses --      2.9619                 1.1011                 3.3178
 Frc consts  --      0.0079                 0.0416                 0.2728
 IR Inten    --      2.4046               115.8151                 2.8970
  Atom  AN      X      Y      Z        X      Y      Z        X      Y      Z
     1   6     0.02  -0.15  -0.07    -0.01  -0.01  -0.01     0.10   0.01  -0.13
     2   1     0.15  -0.11  -0.38    -0.03  -0.01   0.05    -0.01  -0.03  -0.44
     3   1     0.08  -0.45   0.03    -0.03   0.05  -0.04     0.29  -0.26  -0.02
     4   6    -0.04  -0.15   0.06    -0.01   0.01  -0.02    -0.10  -0.01   0.12
     5   1    -0.11  -0.45  -0.06    -0.01   0.04  -0.01    -0.32  -0.29  -0.03
     6   1    -0.16  -0.12   0.38    -0.02   0.01  -0.05    -0.00  -0.07   0.47
     7   9     0.14   0.13  -0.06     0.01   0.00   0.02    -0.21   0.02  -0.04
     8   8    -0.14   0.13   0.07     0.03  -0.06  -0.03     0.24   0.01   0.04
     9   1    -0.16   0.21   0.09    -0.40   0.77   0.48     0.09  -0.01   0.25
                      4                      5                      6
                      A                      A                      A
 Frequencies --    456.7019               866.5040               969.9096
 Red. masses --      2.4820                 2.2611                 2.3049
 Frc consts  --      0.3050                 1.0003                 1.2775
 IR Inten    --     15.7485                15.4357                69.2147
  Atom  AN      X      Y      Z        X      Y      Z        X      Y      Z
     1   6    -0.12   0.13  -0.11    -0.11   0.15  -0.06     0.17  -0.04  -0.07
     2   1    -0.09   0.15   0.22    -0.39   0.03  -0.50     0.18  -0.04   0.35
     3   1    -0.41   0.33  -0.23     0.09  -0.23   0.09    -0.31   0.18  -0.22
     4   6    -0.11  -0.11  -0.12     0.12   0.14   0.08     0.14   0.06  -0.10
     5   1    -0.39  -0.28  -0.24    -0.05  -0.20  -0.08    -0.38  -0.20  -0.29
     6   1    -0.10  -0.14   0.19     0.38  -0.01   0.45     0.24  -0.01   0.44
     7   9     0.11  -0.02   0.08     0.07  -0.08  -0.03    -0.09   0.04   0.04
     8   8     0.10   0.02   0.07    -0.07  -0.09   0.01    -0.11  -0.07   0.07
     9   1     0.04  -0.27   0.19    -0.13  -0.08   0.08     0.04   0.12  -0.17
                      7                      8                      9
                      A                      A                      A
 Frequencies --   1046.1390              1110.8725              1119.4531
 Red. masses --      2.1729                 3.0632                 2.9433
 Frc consts  --      1.4011                 2.2272                 2.1732
 IR Inten    --     24.6051                34.4553                35.1669
  Atom  AN      X      Y      Z        X      Y      Z        X      Y      Z
     1   6     0.07   0.05   0.19    -0.17  -0.03   0.12     0.11   0.24  -0.05
     2   1    -0.02  -0.00  -0.23    -0.11  -0.00  -0.30     0.21   0.25  -0.39
     3   1     0.28  -0.29   0.33    -0.37  -0.46   0.19     0.45  -0.10   0.13
     4   6    -0.15   0.07  -0.16     0.20  -0.11  -0.14     0.02  -0.21  -0.08
     5   1    -0.38  -0.16  -0.30     0.31  -0.34  -0.19     0.25   0.13   0.08
     6   1    -0.10   0.01   0.13     0.17  -0.10   0.14     0.03  -0.18  -0.44
     7   9     0.04  -0.04  -0.00    -0.10   0.09   0.10    -0.05   0.08   0.05
     8   8     0.01  -0.03   0.01     0.09   0.06  -0.09    -0.09  -0.12   0.07
     9   1     0.23   0.34  -0.35     0.11   0.11  -0.11    -0.13  -0.14   0.11
                     10                     11                     12
                      A                      A                      A
 Frequencies --   1236.3010              1275.2046              1303.5694
 Red. masses --      1.1513                 1.1262                 1.1079
 Frc consts  --      1.0368                 1.0790                 1.1092
 IR Inten    --     14.4937                52.4178                 6.6231
  Atom  AN      X      Y      Z        X      Y      Z        X      Y      Z
     1   6     0.00  -0.04   0.01    -0.01  -0.01   0.06    -0.02  -0.04   0.02
     2   1    -0.18  -0.11   0.12     0.58   0.21   0.02    -0.37  -0.18   0.08
     3   1     0.61   0.30   0.03    -0.05  -0.20   0.12     0.32   0.13   0.04
     4   6     0.02   0.03  -0.08    -0.00   0.04  -0.01     0.02  -0.05  -0.01
     5   1     0.25  -0.34  -0.18    -0.31   0.10  -0.05    -0.47   0.27   0.02
     6   1    -0.19   0.12   0.14     0.15  -0.04   0.06     0.54  -0.29  -0.13
     7   9    -0.02  -0.01   0.03     0.01  -0.00  -0.01     0.00   0.04  -0.00
     8   8    -0.02   0.03  -0.01    -0.00   0.00  -0.06     0.00   0.03  -0.01
     9   1    -0.20  -0.27   0.29    -0.30  -0.40   0.41    -0.01  -0.02   0.03
                     13                     14                     15
                      A                      A                      A
 Frequencies --   1410.6916              1464.6385              1502.2966
 Red. masses --      1.2573                 1.4633                 1.0936
 Frc consts  --      1.4742                 1.8495                 1.4542
 IR Inten    --      8.5829                 3.9593                 1.7012
  Atom  AN      X      Y      Z        X      Y      Z        X      Y      Z
     1   6    -0.06  -0.04  -0.04     0.15   0.01   0.07    -0.02  -0.01   0.02
     2   1     0.36   0.12   0.13    -0.41  -0.20  -0.26     0.06   0.02  -0.21
     3   1     0.18   0.05  -0.01    -0.52   0.06  -0.09     0.08   0.22  -0.04
     4   6    -0.11   0.04  -0.03    -0.10   0.01  -0.03     0.02  -0.05  -0.06
     5   1     0.52  -0.07   0.06     0.35   0.02   0.06     0.05   0.62   0.21
     6   1     0.58  -0.28   0.20     0.26  -0.17   0.12    -0.22   0.04   0.64
     7   9     0.01   0.01   0.01     0.01   0.00   0.01     0.00  -0.01  -0.01
     8   8     0.01  -0.01   0.02    -0.02   0.02  -0.04     0.00  -0.00   0.01
     9   1     0.11   0.13  -0.14    -0.20  -0.25   0.26     0.02   0.02  -0.02
                     16                     17                     18
                      A                      A                      A
 Frequencies --   1508.5382              2971.5170              3020.3908
 Red. masses --      1.0880                 1.0629                 1.0871
 Frc consts  --      1.4587                 5.5296                 5.8434
 IR Inten    --      7.8550                48.0519                16.7788
  Atom  AN      X      Y      Z        X      Y      Z        X      Y      Z
     1   6    -0.03  -0.05   0.05     0.02  -0.06   0.03     0.02  -0.04  -0.07
     2   1     0.24   0.07  -0.63    -0.32   0.86   0.01    -0.10   0.24  -0.01
     3   1    -0.06   0.63  -0.17     0.08  -0.12  -0.34    -0.16   0.23   0.79
     4   6     0.01   0.01   0.02     0.00   0.01   0.00     0.01   0.02   0.02
     5   1    -0.12  -0.19  -0.08     0.00   0.01  -0.02     0.06   0.10  -0.26
     6   1     0.07  -0.00  -0.22    -0.05  -0.13  -0.00    -0.15  -0.33  -0.02
     7   9    -0.00   0.00   0.00    -0.00   0.00   0.00    -0.00   0.00   0.00
     8   8     0.00  -0.01   0.01    -0.00  -0.00   0.00     0.00   0.00   0.00
     9   1     0.04   0.05  -0.05    -0.00  -0.00   0.00    -0.00   0.01  -0.00
                     19                     20                     21
                      A                      A                      A
 Frequencies --   3034.0004              3084.8803              3831.0168
 Red. masses --      1.0686                 1.1069                 1.0663
 Frc consts  --      5.7955                 6.2066                 9.2205
 IR Inten    --     63.5736                34.1781                21.8278
  Atom  AN      X      Y      Z        X      Y      Z        X      Y      Z
     1   6     0.01  -0.03  -0.03    -0.00   0.00  -0.00    -0.00   0.00  -0.00
     2   1    -0.10   0.25  -0.01     0.02  -0.05  -0.00     0.00   0.00  -0.00
     3   1    -0.07   0.10   0.36    -0.01   0.01   0.04     0.00   0.00   0.00
     4   6    -0.02  -0.04  -0.04     0.03   0.07  -0.06     0.00  -0.00  -0.00
     5   1    -0.10  -0.18   0.45    -0.14  -0.29   0.76     0.00  -0.00   0.00
     6   1     0.30   0.66   0.03    -0.24  -0.50  -0.04    -0.00   0.00   0.00
     7   9     0.00  -0.00  -0.00    -0.00  -0.00   0.00     0.00  -0.00   0.00
     8   8     0.00   0.00   0.00     0.00  -0.00   0.00    -0.05  -0.01  -0.03
     9   1    -0.00   0.00  -0.00    -0.00  -0.00  -0.00     0.81   0.07   0.57

 -------------------
 - Thermochemistry -
 -------------------
 Temperature   298.150 Kelvin.  Pressure   1.00000 Atm.
 Atom     1 has atomic number  6 and mass  12.00000
 Atom     2 has atomic number  1 and mass   1.00783
 Atom     3 has atomic number  1 and mass   1.00783
 Atom     4 has atomic number  6 and mass  12.00000
 Atom     5 has atomic number  1 and mass   1.00783
 Atom     6 has atomic number  1 and mass   1.00783
 Atom     7 has atomic number  9 and mass  18.99840
 Atom     8 has atomic number  8 and mass  15.99491
 Atom     9 has atomic number  1 and mass   1.00783
 Molecular mass:    64.03244 amu.
 Principal axes and moments of inertia in atomic units:
                           1         2         3
     Eigenvalues --    88.90364 412.41978 430.54224
           X            0.99925   0.01874   0.03382
           Y           -0.01878   0.99982   0.00084
           Z           -0.03380  -0.00147   0.99943
 This molecule is an asymmetric top.
 Rotational symmetry number  1.
 Rotational temperatures (Kelvin)      0.97424     0.21001     0.20117
 Rotational constants (GHZ):          20.29997     4.37598     4.19179
    1 imaginary frequencies ignored.
 Zero-point vibrational energy     190441.5 (Joules/Mol)
                                   45.51661 (Kcal/Mol)
 Warning -- explicit consideration of   3 degrees of freedom as
           vibrations may cause significant error
 Vibrational temperatures:    364.20   537.50   657.09  1246.71  1395.48
          (Kelvin)           1505.16  1598.30  1610.64  1778.76  1834.74
                             1875.55  2029.67  2107.29  2161.47  2170.45
                             4275.35  4345.67  4365.25  4438.45  5511.98
 
 Zero-point correction=                           0.072535 (Hartree/Particle)
 Thermal correction to Energy=                    0.076685
 Thermal correction to Enthalpy=                  0.077629
 Thermal correction to Gibbs Free Energy=         0.045882
 Sum of electronic and zero-point Energies=           -254.205968
 Sum of electronic and thermal Energies=              -254.201819
 Sum of electronic and thermal Enthalpies=            -254.200875
 Sum of electronic and thermal Free Energies=         -254.232622
 
                     E (Thermal)             CV                S
                      KCal/Mol        Cal/Mol-Kelvin    Cal/Mol-Kelvin
 Total                   48.120             13.238             66.817
 Electronic               0.000              0.000              0.000
 Translational            0.889              2.981             38.389
 Rotational               0.889              2.981             24.271
 Vibrational             46.343              7.276              4.156
 Vibration     1          0.664              1.758              1.709
 Vibration     2          0.745              1.526              1.065
 Vibration     3          0.815              1.346              0.776
                       Q            Log10(Q)             Ln(Q)
 Total Bot       0.786441D-21        -21.104334        -48.594525
 Total V=0       0.181793D+13         12.259576         28.228718
 Vib (Bot)       0.868218D-33        -33.061371        -76.126620
 Vib (Bot)    1  0.769886D+00         -0.113573         -0.261512
 Vib (Bot)    2  0.486142D+00         -0.313237         -0.721254
 Vib (Bot)    3  0.373440D+00         -0.427779         -0.984997
 Vib (V=0)       0.200696D+01          0.302539          0.696623
 Vib (V=0)    1  0.141800D+01          0.151676          0.349248
 Vib (V=0)    2  0.119738D+01          0.078231          0.180133
 Vib (V=0)    3  0.112407D+01          0.050792          0.116952
 Electronic      0.100000D+01          0.000000          0.000000
 Translational   0.201397D+08          7.304054         16.818206
 Rotational      0.449762D+05          4.652983         10.713889
 ***** Axes restored to original set *****
 -------------------------------------------------------------------
 Center     Atomic                   Forces (Hartrees/Bohr)
 Number     Number              X              Y              Z
 -------------------------------------------------------------------
      1        6          -0.001524836    0.002037464    0.002672689
      2        1           0.000006240    0.000000788    0.000000848
      3        1          -0.000004020    0.000006030   -0.000007228
      4        6           0.001665807    0.002437883   -0.002584080
      5        1          -0.000005917    0.000005326   -0.000003309
      6        1           0.000001978    0.000004014    0.000003185
      7        9          -0.001039526   -0.002327384    0.001579544
      8        8           0.000902892   -0.002167434   -0.001664653
      9        1          -0.000002617    0.000003313    0.000003004
 -------------------------------------------------------------------
 Cartesian Forces:  Max     0.002672689 RMS     0.001309395

 GradGradGradGradGradGradGradGradGradGradGradGradGradGradGradGradGradGrad
 Berny optimization.
 Search for a local minimum.
 Step number   1 out of a maximum of    2
 All quantities printed in internal units (Hartrees-Bohrs-Radians)
 Second derivative matrix not updated -- analytic derivatives used.
 ITU=  0
     Eigenvalues ---   -0.00062   0.00394   0.02050   0.02975   0.05531
     Eigenvalues ---    0.06669   0.07787   0.08364   0.11171   0.11990
     Eigenvalues ---    0.15178   0.15993   0.20478   0.30101   0.46645
     Eigenvalues ---    0.65803   0.71689   0.76023   0.80448   0.84597
     Eigenvalues ---    1.03941
 Eigenvalue     1 is  -6.23D-04 should be greater than     0.000000 Eigenvector:
                          Y5        Y3        Z6        Z2        Y7
   1                    0.42378   0.42371  -0.38147   0.37517  -0.24938
                          Y9        X7        X6        Y8        X9
   1                   -0.20977  -0.18348   0.18292  -0.17453   0.14544
 Quadratic step=3.925D+00 exceeds max=3.000D-01 adjusted using Lamda=-7.850D-03.
 Angle between NR and scaled steps=  13.16 degrees.
 Angle between quadratic step and forces=  63.02 degrees.
 Linear search not attempted -- first point.
 B after Tr=    -0.003782   -0.023265    0.003354
         Rot=    0.999995    0.000864    0.002794    0.001480 Ang=   0.38 deg.
 Variable       Old X    -DE/DX   Delta X   Delta X   Delta X     New X
                                 (Linear)    (Quad)   (Total)
    X1       -1.18219  -0.00152   0.00000  -0.00767  -0.00497  -1.18715
    Y1        0.82717   0.00204   0.00000   0.03747   0.01651   0.84368
    Z1       -0.71609   0.00267   0.00000   0.01883   0.01405  -0.70203
    X2       -1.89096   0.00001   0.00000  -0.05504  -0.04690  -1.93787
    Y2        2.78466   0.00000   0.00000   0.02055   0.00191   2.78658
    Z2       -0.73890   0.00000   0.00000   0.10255   0.09021  -0.64870
    X3       -0.76179  -0.00000   0.00000  -0.01003   0.00240  -0.75939
    Y3        0.27934   0.00001   0.00000   0.12534   0.09970   0.37904
    Z3       -2.67552  -0.00001   0.00000  -0.00849  -0.01010  -2.68562
    X4        1.28202   0.00167   0.00000   0.00784   0.00208   1.28411
    Y4        0.72299   0.00244   0.00000   0.03861   0.01283   0.73582
    Z4        0.77182  -0.00258   0.00000  -0.01818  -0.00893   0.76288
    X5        0.89770  -0.00001   0.00000   0.00950  -0.00893   0.88877
    Y5        0.02225   0.00001   0.00000   0.12675   0.10549   0.12773
    Z5        2.68199  -0.00000   0.00000   0.01619   0.02431   2.70631
    X6        2.13703   0.00000   0.00000   0.05826   0.05780   2.19483
    Y6        2.60664   0.00000   0.00000   0.02083  -0.00757   2.59907
    Z6        0.89811   0.00000   0.00000  -0.10506  -0.09396   0.80415
    X7        3.00818  -0.00104   0.00000  -0.06242  -0.06706   2.94112
    Y7       -0.84686  -0.00233   0.00000  -0.08197  -0.11454  -0.96141
    Z7       -0.39409   0.00158   0.00000   0.04464   0.06607  -0.32802
    X8       -2.95373   0.00090   0.00000   0.05845   0.04982  -2.90391
    Y8       -0.80709  -0.00217   0.00000  -0.07923  -0.09323  -0.90032
    Z8        0.45647  -0.00166   0.00000  -0.04925  -0.06056   0.39591
    X9       -4.42477  -0.00000   0.00000   0.01881   0.01576  -4.40902
    Y9       -0.91535   0.00000   0.00000  -0.00982  -0.02111  -0.93646
    Z9       -0.60504   0.00000   0.00000  -0.00140  -0.02108  -0.62613
         Item               Value     Threshold  Converged?
 Maximum Force            0.002673     0.000450     NO 
 RMS     Force            0.001309     0.000300     NO 
 Maximum Displacement     0.114545     0.001800     NO 
 RMS     Displacement     0.055484     0.001200     NO 
 Predicted change in Energy=-8.680611D-04
 GradGradGradGradGradGradGradGradGradGradGradGradGradGradGradGradGradGrad


 ----------------------------------------------------------------------

 Electric dipole moment (input orientation):
 (Debye = 10**-18 statcoulomb cm , SI units = C m)
                  (au)            (Debye)         (10**-30 SI)
   Tot        0.869644D+00      0.221041D+01      0.737315D+01
   x         -0.587759D+00     -0.149393D+01     -0.498323D+01
   y          0.581518D+00      0.147807D+01      0.493032D+01
   z         -0.269548D+00     -0.685122D+00     -0.228532D+01

 Dipole polarizability, Alpha (input orientation).
 (esu units = cm**3 , SI units = C**2 m**2 J**-1)
 Alpha(0;0):
               (au)            (10**-24 esu)      (10**-40 SI)
   iso        0.284511D+02      0.421601D+01      0.469095D+01
   aniso      0.529714D+01      0.784955D+00      0.873380D+00
   xx         0.312945D+02      0.463737D+01      0.515977D+01
   yx         0.143320D+01      0.212378D+00      0.236302D+00
   yy         0.270301D+02      0.400545D+01      0.445667D+01
   zx         0.108654D+01      0.161008D+00      0.179145D+00
   zy        -0.233910D+00     -0.346618D-01     -0.385665D-01
   zz         0.270286D+02      0.400522D+01      0.445641D+01

 ----------------------------------------------------------------------

 Dipole orientation:
     6         -0.00059608          0.34187223          1.57406573
     1          0.22854621         -0.68765749          3.36911794
     1          1.40850465          1.86790946          1.53093654
     6          0.56276659         -1.43460774         -0.62224318
     1         -1.22031663         -2.11777267         -1.42313001
     1          1.68414068         -3.05472455          0.02031236
     9          1.93338418         -0.21652213         -2.47725254
     8         -2.51070631          1.24541148          1.31513896
     1         -2.78869832          2.53405166          2.56598600

 Electric dipole moment (dipole orientation):
 (Debye = 10**-18 statcoulomb cm , SI units = C m)
                  (au)            (Debye)         (10**-30 SI)
   Tot        0.869644D+00      0.221041D+01      0.737315D+01
   x          0.000000D+00      0.000000D+00      0.000000D+00
   y          0.000000D+00      0.000000D+00      0.000000D+00
   z          0.869644D+00      0.221041D+01      0.737315D+01

 Dipole polarizability, Alpha (dipole orientation).
 (esu units = cm**3 , SI units = C**2 m**2 J**-1)
 Alpha(0;0):
               (au)            (10**-24 esu)      (10**-40 SI)
   iso        0.284511D+02      0.421601D+01      0.469095D+01
   aniso      0.529714D+01      0.784955D+00      0.873380D+00
   xx         0.286349D+02      0.424326D+01      0.472126D+01
   yx        -0.201432D+01     -0.298491D+00     -0.332116D+00
   yy         0.284837D+02      0.422084D+01      0.469632D+01
   zx        -0.117975D+01     -0.174822D+00     -0.194515D+00
   zy         0.196547D+01      0.291253D+00      0.324063D+00
   zz         0.282347D+02      0.418394D+01      0.465527D+01

 ----------------------------------------------------------------------
 Unable to Open any file for archive entry.
 1\1\GINC-COMPUTE-2-3\Freq\RB3LYP\6-31G(2df,p)\C2H5F1O1\JINGDAN2\05-Dec
 -2024\0\\# freq b3lyp/6-31g(2df,p)\\energy: -15.614184499692 gnorm: 0.
 000439253721 xtb: 6.6.1 (8d0f1dd)\\0,1\C,-0.625586,0.437721,-0.378937\
 H,-1.000654,1.47358,-0.391011\H,-0.403121,0.147821,-1.415822\C,0.67841
 7,0.382589,0.408427\H,0.47504,0.011773,1.419249\H,1.13087,1.379374,0.4
 75259\F,1.591861,-0.448141,-0.208541\O,-1.563047,-0.427094,0.241554\H,
 -2.341488,-0.484382,-0.320175\\Version=ES64L-G16RevC.01\State=1-A\HF=-
 254.2785038\RMSD=2.635e-09\RMSF=1.309e-03\ZeroPoint=0.0725353\Thermal=
 0.0766848\ETot=-254.201819\HTot=-254.2008748\GTot=-254.2326216\Dipole=
 -0.5877587,0.5815184,-0.2695478\DipoleDeriv=0.5097908,0.2224026,-0.153
 8778,0.1709724,0.5491994,-0.085136,-0.2480683,-0.0501103,0.28779,-0.05
 66853,0.0489376,-0.0074292,0.027852,-0.2173213,0.0274417,0.0296614,-0.
 0025097,0.0251072,-0.0272918,-0.0119082,0.0449633,-0.0314489,0.0004737
 ,-0.0602693,0.0633508,-0.012477,-0.1476954,0.6603393,-0.2276707,-0.112
 3177,-0.1930633,0.5877357,0.1277927,-0.1845401,0.0939408,0.4215948,0.0
 107958,0.0139382,0.0289895,0.0175599,0.0101033,0.0721442,0.0323312,0.0
 246423,-0.0996157,-0.0549432,-0.0632931,-0.0116665,-0.0567598,-0.14611
 65,-0.0348467,0.0180572,0.0061844,0.0370974,-0.5946487,0.2571778,0.104
 6339,0.2741824,-0.4520645,-0.1232844,0.1710924,-0.1522863,-0.3390362,-
 0.6487039,-0.2238912,0.1872837,-0.2141323,-0.6415026,0.031705,0.212822
 9,0.058356,-0.3900293,0.201347,-0.015693,-0.0805792,0.0048376,0.309492
 8,0.0444529,-0.0947075,0.0342599,0.2047872\Polar=31.2945265,1.4331956,
 27.0301236,1.0865353,-0.2339096,27.0285845\Quadrupole=0.2486247,-0.411
 1237,0.1624989,0.8742121,2.5486434,0.3692662\PG=C01 [X(C2H5F1O1)]\NIma
 g=1\\0.49084805,-0.03958378,0.53831271,-0.00587867,0.02750356,0.552892
 22,-0.08457500,0.08580095,-0.00121054,0.09391095,0.08673637,-0.2496298
 5,-0.00615902,-0.08322947,0.28373546,0.00099915,-0.00753741,-0.0547822
 0,-0.00369869,-0.00185038,0.05152093,-0.05639745,0.01323819,0.03787391
 ,0.00028493,0.00638066,0.01181646,0.06383038,0.01182296,-0.07476108,-0
 .07559540,0.00452665,-0.00829526,-0.02813379,-0.00958963,0.07604849,0.
 03888137,-0.06883489,-0.26336287,-0.00119362,-0.00120552,0.00079357,-0
 .04997902,0.07095024,0.29142422,-0.14866861,-0.00552834,-0.05572037,-0
 .00769840,-0.00048545,-0.00653511,0.00423185,0.00337250,0.00243398,0.4
 9030821,0.00680326,-0.07474067,0.00578233,0.02368403,-0.00215750,0.015
 17205,-0.00667536,0.00065060,-0.00767143,0.05752843,0.56361881,-0.0590
 6782,-0.00023912,-0.11850007,0.00336338,-0.00274786,0.00186098,-0.0280
 4505,0.00214242,-0.01971815,-0.02201302,-0.03231882,0.55702608,0.00410
 797,0.00793054,-0.02748322,-0.00049618,0.00016271,0.00011012,-0.004315
 36,-0.00018972,-0.00209625,-0.05596126,-0.01492535,0.03481119,0.064829
 60,-0.00337124,0.00226649,0.00019731,-0.00043621,-0.00001139,-0.000362
 12,0.00059420,-0.00021908,-0.00027713,-0.01755001,-0.09080028,0.095286
 27,0.01191960,0.09001965,0.00090189,0.00945406,-0.01726366,-0.00165073
 ,-0.00024193,-0.00109416,-0.00179632,0.00043711,-0.00069140,0.03655203
 ,0.08571764,-0.26240580,-0.04795076,-0.08992452,0.28990244,-0.00880304
 ,-0.02250193,0.00163547,-0.00045509,-0.00001538,0.00053204,-0.00056634
 ,0.00024043,-0.00139280,-0.10069878,-0.10659399,-0.00550066,0.00034338
 ,-0.00402629,-0.00190920,0.11044191,0.00173538,0.00073010,0.00301199,0
 .00012474,0.00185584,-0.00023031,-0.00003505,-0.00002773,0.00041823,-0
 .10237615,-0.24912181,-0.00638431,-0.00750299,-0.00826047,0.00001006,0
 .10043913,0.28180827,-0.00839852,-0.01529657,0.00227344,0.00069971,0.0
 0029372,0.00123027,0.00019826,0.00026178,-0.00070421,-0.00386451,-0.00
 151667,-0.05618924,0.01239553,0.02617359,0.00370382,0.00202917,0.01550
 783,0.05238467,-0.03012685,0.03493853,0.01703205,-0.00700310,0.0002918
 0,-0.00322973,0.00278038,-0.00063965,0.00239100,-0.14681710,0.07626558
 ,0.06049859,-0.01137060,0.01265450,0.01266542,0.00593591,0.00773804,0.
 00016483,0.18888817,0.01346292,-0.00801668,-0.00228107,0.00212116,0.00
 129675,0.00129610,-0.00059519,0.00092016,0.00046148,0.07500932,-0.1413
 9955,-0.05646235,0.00198007,0.00651835,-0.00528900,0.03362140,-0.02809
 978,-0.02479990,-0.12869671,0.16665742,-0.00623471,0.00654731,0.007220
 64,-0.00271784,0.00087379,-0.00024740,0.00153451,0.00109147,0.00409819
 ,0.05965027,-0.05495987,-0.10879793,0.02901679,-0.03001058,-0.01519598
 ,0.00792115,-0.01196934,-0.00159013,-0.08898972,0.08754510,0.11327765,
 -0.14223378,-0.07529102,0.05296858,0.00446915,-0.01031470,0.00067979,-
 0.01150937,-0.01137747,0.01154155,-0.03168890,-0.03028243,0.01372786,0
 .00253090,0.00033218,0.00234135,-0.00500219,-0.00028859,-0.00276171,-0
 .00216852,0.00253677,-0.00044637,0.52273210,-0.05317201,-0.12962756,0.
 06294100,-0.03233561,-0.02687793,0.02223817,-0.00374808,0.00441051,0.0
 0516766,-0.00761216,-0.00368266,-0.00163261,0.00053448,0.00045271,-0.0
 0021693,-0.00042515,0.00088787,0.00009411,-0.00234447,0.00236035,0.000
 93114,0.14144233,0.17096627,0.01518841,0.04241511,-0.11597700,0.006431
 16,0.01011093,0.00086736,0.02748277,0.02871724,-0.01271366,-0.01176000
 ,-0.01268518,0.00857524,0.00099187,-0.00092427,0.00223856,-0.00375703,
 -0.00039457,-0.00194585,-0.00069663,0.00007965,0.00103122,0.17935656,-
 0.08029842,0.32357023,-0.02415128,0.00099685,-0.01921721,0.00156274,0.
 00047346,-0.00067403,0.00166097,0.00183392,-0.00058620,-0.00300701,-0.
 00580417,0.00222553,0.00033156,-0.00011672,0.00084631,-0.00119576,0.00
 016548,-0.00046275,-0.00011830,0.00056028,0.00026592,-0.33712938,-0.04
 233933,-0.21323712,0.36204647,-0.02443387,-0.00453347,-0.01540070,-0.0
 0025624,0.00008388,-0.00059230,0.00043027,0.00127339,0.00099135,-0.002
 35815,-0.00236694,0.00235639,0.00009065,0.00003402,0.00005352,-0.00073
 820,0.00022771,-0.00071789,-0.00020762,-0.00023701,-0.00004901,-0.0167
 5707,-0.01888956,0.01297952,0.04423023,0.02440798,0.02360890,0.0059879
 7,0.00749950,-0.00002283,0.00092627,-0.00014935,0.00091449,0.00012892,
 0.00087432,0.00125673,0.00247995,-0.00185113,0.00020474,-0.00015854,0.
 00080619,0.00044187,0.00003043,0.00083723,0.00016418,-0.00055000,0.000
 20374,-0.25740761,-0.00922412,-0.20564609,0.23083954,0.00037913,0.1974
 2558\\0.00152484,-0.00203746,-0.00267269,-0.00000624,-0.00000079,-0.00
 000085,0.00000402,-0.00000603,0.00000723,-0.00166581,-0.00243788,0.002
 58408,0.00000592,-0.00000533,0.00000331,-0.00000198,-0.00000401,-0.000
 00318,0.00103953,0.00232738,-0.00157954,-0.00090289,0.00216743,0.00166
 465,0.00000262,-0.00000331,-0.00000300\\\@
 The archive entry for this job was punched.


 CONFIDENCE: THAT QUIET ASSURED FEELING YOU HAVE
 JUST BEFORE YOU FALL FLAT ON YOUR FACE.
 Job cpu time:       0 days  0 hours  6 minutes 59.8 seconds.
 Elapsed time:       0 days  0 hours  0 minutes 53.6 seconds.
 File lengths (MBytes):  RWF=     21 Int=      0 D2E=      0 Chk=      2 Scr=      1
 Normal termination of Gaussian 16 at Thu Dec  5 18:23:43 2024.
