 Entering Gaussian System, Link 0=g16
 Input=rotation_std20.gjf
 Output=rotation_std20.log
 Initial command:
 /share/apps/gaussian/g16/l1.exe "/scratch/jingdan2/247448/Gau-338968.inp" -scrdir="/scratch/jingdan2/247448/"
 Entering Link 1 = /share/apps/gaussian/g16/l1.exe PID=    338975.
  
 Copyright (c) 1988-2019, Gaussian, Inc.  All Rights Reserved.
  
 This is part of the Gaussian(R) 16 program.  It is based on
 the Gaussian(R) 09 system (copyright 2009, Gaussian, Inc.),
 the Gaussian(R) 03 system (copyright 2003, Gaussian, Inc.),
 the Gaussian(R) 98 system (copyright 1998, Gaussian, Inc.),
 the Gaussian(R) 94 system (copyright 1995, Gaussian, Inc.),
 the Gaussian 92(TM) system (copyright 1992, Gaussian, Inc.),
 the Gaussian 90(TM) system (copyright 1990, Gaussian, Inc.),
 the Gaussian 88(TM) system (copyright 1988, Gaussian, Inc.),
 the Gaussian 86(TM) system (copyright 1986, Carnegie Mellon
 University), and the Gaussian 82(TM) system (copyright 1983,
 Carnegie Mellon University). Gaussian is a federally registered
 trademark of Gaussian, Inc.
  
 This software contains proprietary and confidential information,
 including trade secrets, belonging to Gaussian, Inc.
  
 This software is provided under written license and may be
 used, copied, transmitted, or stored only in accord with that
 written license.
  
 The following legend is applicable only to US Government
 contracts under FAR:
  
                    RESTRICTED RIGHTS LEGEND
  
 Use, reproduction and disclosure by the US Government is
 subject to restrictions as set forth in subparagraphs (a)
 and (c) of the Commercial Computer Software - Restricted
 Rights clause in FAR 52.227-19.
  
 Gaussian, Inc.
 340 Quinnipiac St., Bldg. 40, Wallingford CT 06492
  
  
 ---------------------------------------------------------------
 Warning -- This program may not be used in any manner that
 competes with the business of Gaussian, Inc. or will provide
 assistance to any competitor of Gaussian, Inc.  The licensee
 of this program is prohibited from giving any competitor of
 Gaussian, Inc. access to this program.  By using this program,
 the user acknowledges that Gaussian, Inc. is engaged in the
 business of creating and licensing software in the field of
 computational chemistry and represents and warrants to the
 licensee that it is not a competitor of Gaussian, Inc. and that
 it will not use this program in any manner prohibited above.
 ---------------------------------------------------------------
  

 Cite this work as:
 Gaussian 16, Revision C.01,
 M. J. Frisch, G. W. Trucks, H. B. Schlegel, G. E. Scuseria, 
 M. A. Robb, J. R. Cheeseman, G. Scalmani, V. Barone, 
 G. A. Petersson, H. Nakatsuji, X. Li, M. Caricato, A. V. Marenich, 
 J. Bloino, B. G. Janesko, R. Gomperts, B. Mennucci, H. P. Hratchian, 
 J. V. Ortiz, A. F. Izmaylov, J. L. Sonnenberg, D. Williams-Young, 
 F. Ding, F. Lipparini, F. Egidi, J. Goings, B. Peng, A. Petrone, 
 T. Henderson, D. Ranasinghe, V. G. Zakrzewski, J. Gao, N. Rega, 
 G. Zheng, W. Liang, M. Hada, M. Ehara, K. Toyota, R. Fukuda, 
 J. Hasegawa, M. Ishida, T. Nakajima, Y. Honda, O. Kitao, H. Nakai, 
 T. Vreven, K. Throssell, J. A. Montgomery, Jr., J. E. Peralta, 
 F. Ogliaro, M. J. Bearpark, J. J. Heyd, E. N. Brothers, K. N. Kudin, 
 V. N. Staroverov, T. A. Keith, R. Kobayashi, J. Normand, 
 K. Raghavachari, A. P. Rendell, J. C. Burant, S. S. Iyengar, 
 J. Tomasi, M. Cossi, J. M. Millam, M. Klene, C. Adamo, R. Cammi, 
 J. W. Ochterski, R. L. Martin, K. Morokuma, O. Farkas, 
 J. B. Foresman, and D. J. Fox, Gaussian, Inc., Wallingford CT, 2019.
 
 ******************************************
 Gaussian 16:  ES64L-G16RevC.01  3-Jul-2019
                 5-Dec-2024 
 ******************************************
 %nprocshared=8
 Will use up to    8 processors via shared memory.
 %mem=8GB
 -------------------------
 # freq b3lyp/6-31g(2df,p)
 -------------------------
 1/10=4,30=1,38=1/1,3;
 2/12=2,17=6,18=5,40=1/2;
 3/5=1,6=6,7=104,11=2,25=1,30=1,71=2,74=-5,140=1/1,2,3;
 4//1;
 5/5=2,38=5,98=1/2;
 8/6=4,10=90,11=11/1;
 11/6=1,8=1,9=11,15=111,16=1/1,2,10;
 10/6=1/2;
 6/7=2,8=2,9=2,10=2,28=1/1;
 7/8=1,10=1,25=1/1,2,3,16;
 1/10=4,30=1/3;
 99//99;
 -------------------------------------------------------------------
 energy: -15.614184499692 gnorm: 0.000439253721 xtb: 6.6.1 (8d0f1dd)
 -------------------------------------------------------------------
 Symbolic Z-matrix:
 Charge =  0 Multiplicity = 1
 C                    -0.73394   0.65687  -0.04652 
 H                    -1.11472   1.29967   0.76203 
 H                    -1.0239    1.12942  -0.99831 
 C                     0.81358   0.59448   0.0483 
 H                     1.15341   1.00483   1.00728 
 H                     1.26942   1.1853   -0.75522 
 F                     1.26623  -0.69622  -0.03683 
 O                    -1.24429  -0.65802   0.03589 
 H                    -2.20377  -0.59723   0.01792 
 

 GradGradGradGradGradGradGradGradGradGradGradGradGradGradGradGradGradGrad
 Berny optimization.
 Initialization pass.
 Trust Radius=3.00D-01 FncErr=1.00D-07 GrdErr=1.00D-07 EigMax=2.50D+02 EigMin=1.00D-04
 Number of steps in this run=      2 maximum allowed number of steps=      2.
 GradGradGradGradGradGradGradGradGradGradGradGradGradGradGradGradGradGrad

                          Input orientation:                          
 ---------------------------------------------------------------------
 Center     Atomic      Atomic             Coordinates (Angstroms)
 Number     Number       Type             X           Y           Z
 ---------------------------------------------------------------------
      1          6           0       -0.733939    0.656866   -0.046519
      2          1           0       -1.114718    1.299668    0.762032
      3          1           0       -1.023901    1.129418   -0.998313
      4          6           0        0.813581    0.594483    0.048303
      5          1           0        1.153407    1.004834    1.007284
      6          1           0        1.269418    1.185303   -0.755216
      7          9           0        1.266229   -0.696216   -0.036834
      8          8           0       -1.244293   -0.658020    0.035887
      9          1           0       -2.203769   -0.597225    0.017919
 ---------------------------------------------------------------------
                    Distance matrix (angstroms):
                    1          2          3          4          5
     1  C    0.000000
     2  H    1.100882   0.000000
     3  H    1.101497   1.770889   0.000000
     4  C    1.551677   2.173714   2.181261   0.000000
     5  H    2.189442   2.300319   2.962872   1.097048   0.000000
     6  H    2.189734   2.828290   2.306844   1.096585   1.775509
     7  F    2.414870   3.207904   3.082544   1.370417   1.999120
     8  O    1.412861   2.092037   2.076795   2.409100   3.075331
     9  H    1.933209   2.310398   2.325105   3.244301   3.849164
                    6          7          8          9
     6  H    0.000000
     7  F    2.014000   0.000000
     8  O    3.215964   2.511865   0.000000
     9  H    3.979720   3.471841   0.961568   0.000000
 Stoichiometry    C2H5FO
 Framework group  C1[X(C2H5FO)]
 Deg. of freedom    21
 Full point group                 C1      NOp   1
 Largest Abelian subgroup         C1      NOp   1
 Largest concise Abelian subgroup C1      NOp   1
                         Standard orientation:                         
 ---------------------------------------------------------------------
 Center     Atomic      Atomic             Coordinates (Angstroms)
 Number     Number       Type             X           Y           Z
 ---------------------------------------------------------------------
      1          6           0       -0.733939    0.656866   -0.046519
      2          1           0       -1.114718    1.299668    0.762032
      3          1           0       -1.023901    1.129418   -0.998313
      4          6           0        0.813581    0.594483    0.048303
      5          1           0        1.153407    1.004834    1.007284
      6          1           0        1.269418    1.185303   -0.755216
      7          9           0        1.266229   -0.696216   -0.036834
      8          8           0       -1.244293   -0.658020    0.035887
      9          1           0       -2.203769   -0.597225    0.017919
 ---------------------------------------------------------------------
 Rotational constants (GHZ):          14.7797691           6.0878784           4.5679216
 Standard basis: 6-31G(2df,p) (6D, 7F)
 There are   149 symmetry adapted cartesian basis functions of A   symmetry.
 There are   137 symmetry adapted basis functions of A   symmetry.
   137 basis functions,   211 primitive gaussians,   149 cartesian basis functions
    17 alpha electrons       17 beta electrons
       nuclear repulsion energy       131.1010039439 Hartrees.
 NAtoms=    9 NActive=    9 NUniq=    9 SFac= 1.00D+00 NAtFMM=   60 NAOKFM=F Big=F
 Integral buffers will be    131072 words long.
 Raffenetti 2 integral format.
 Two-electron integral symmetry is turned on.
 One-electron integrals computed using PRISM.
 NBasis=   137 RedAO= T EigKep=  1.23D-03  NBF=   137
 NBsUse=   137 1.00D-06 EigRej= -1.00D+00 NBFU=   137
 ExpMin= 1.61D-01 ExpMax= 7.00D+03 ExpMxC= 1.05D+03 IAcc=3 IRadAn=         5 AccDes= 0.00D+00
 Harris functional with IExCor=  402 and IRadAn=       5 diagonalized for initial guess.
 HarFok:  IExCor=  402 AccDes= 0.00D+00 IRadAn=         5 IDoV= 1 UseB2=F ITyADJ=14
 ICtDFT=  3500011 ScaDFX=  1.000000  1.000000  1.000000  1.000000
 FoFCou: FMM=F IPFlag=           0 FMFlag=      100000 FMFlg1=           0
         NFxFlg=           0 DoJE=T BraDBF=F KetDBF=T FulRan=T
         wScrn=  0.000000 ICntrl=       500 IOpCl=  0 I1Cent=   200000004 NGrid=           0
         NMat0=    1 NMatS0=      1 NMatT0=    0 NMatD0=    1 NMtDS0=    0 NMtDT0=    0
 Petite list used in FoFCou.
 Keep R1 ints in memory in canonical form, NReq=52495207.
 Requested convergence on RMS density matrix=1.00D-08 within 128 cycles.
 Requested convergence on MAX density matrix=1.00D-06.
 Requested convergence on             energy=1.00D-06.
 No special actions if energy rises.
 Integral accuracy reduced to 1.0D-05 until final iterations.
 Initial convergence to 1.0D-05 achieved.  Increase integral accuracy.
 SCF Done:  E(RB3LYP) =  -254.270582140     A.U. after   12 cycles
            NFock= 12  Conv=0.47D-08     -V/T= 2.0064
 DoSCS=F DFT=T ScalE2(SS,OS)=  1.000000  1.000000
 Range of M.O.s used for correlation:     1   137
 NBasis=   137 NAE=    17 NBE=    17 NFC=     0 NFV=     0
 NROrb=    137 NOA=    17 NOB=    17 NVA=   120 NVB=   120

 **** Warning!!: The largest alpha MO coefficient is  0.18594411D+02

 Symmetrizing basis deriv contribution to polar:
 IMax=3 JMax=2 DiffMx= 0.00D+00
 G2DrvN: will do    10 centers at a time, making    1 passes.
 Calling FoFCou, ICntrl=  3107 FMM=F I1Cent=   0 AccDes= 0.00D+00.
 End of G2Drv F.D. properties file   721 does not exist.
 End of G2Drv F.D. properties file   722 does not exist.
 End of G2Drv F.D. properties file   788 does not exist.
          IDoAtm=111111111
          Differentiating once with respect to electric field.
                with respect to dipole field.
          Differentiating once with respect to nuclear coordinates.
 Keep R1 ints in memory in canonical form, NReq=52475930.
          There are    30 degrees of freedom in the 1st order CPHF.  IDoFFX=6 NUNeed=     3.
     27 vectors produced by pass  0 Test12= 6.80D-15 3.33D-09 XBig12= 1.57D+01 1.43D+00.
 AX will form    27 AO Fock derivatives at one time.
     27 vectors produced by pass  1 Test12= 6.80D-15 3.33D-09 XBig12= 1.28D+00 2.29D-01.
     27 vectors produced by pass  2 Test12= 6.80D-15 3.33D-09 XBig12= 1.45D-02 3.87D-02.
     27 vectors produced by pass  3 Test12= 6.80D-15 3.33D-09 XBig12= 4.67D-05 1.03D-03.
     27 vectors produced by pass  4 Test12= 6.80D-15 3.33D-09 XBig12= 6.52D-08 4.86D-05.
     17 vectors produced by pass  5 Test12= 6.80D-15 3.33D-09 XBig12= 5.86D-11 1.51D-06.
      3 vectors produced by pass  6 Test12= 6.80D-15 3.33D-09 XBig12= 4.09D-14 3.69D-08.
 InvSVY:  IOpt=1 It=  1 EMax= 4.00D-15
 Solved reduced A of dimension   155 with    30 vectors.
 Isotropic polarizability for W=    0.000000       28.33 Bohr**3.
 End of Minotr F.D. properties file   721 does not exist.
 End of Minotr F.D. properties file   722 does not exist.
 End of Minotr F.D. properties file   788 does not exist.

 **********************************************************************

            Population analysis using the SCF Density.

 **********************************************************************

 Orbital symmetries:
       Occupied  (A) (A) (A) (A) (A) (A) (A) (A) (A) (A) (A) (A)
                 (A) (A) (A) (A) (A)
       Virtual   (A) (A) (A) (A) (A) (A) (A) (A) (A) (A) (A) (A)
                 (A) (A) (A) (A) (A) (A) (A) (A) (A) (A) (A) (A)
                 (A) (A) (A) (A) (A) (A) (A) (A) (A) (A) (A) (A)
                 (A) (A) (A) (A) (A) (A) (A) (A) (A) (A) (A) (A)
                 (A) (A) (A) (A) (A) (A) (A) (A) (A) (A) (A) (A)
                 (A) (A) (A) (A) (A) (A) (A) (A) (A) (A) (A) (A)
                 (A) (A) (A) (A) (A) (A) (A) (A) (A) (A) (A) (A)
                 (A) (A) (A) (A) (A) (A) (A) (A) (A) (A) (A) (A)
                 (A) (A) (A) (A) (A) (A) (A) (A) (A) (A) (A) (A)
                 (A) (A) (A) (A) (A) (A) (A) (A) (A) (A) (A) (A)
 The electronic state is 1-A.
 Alpha  occ. eigenvalues --  -24.66168 -19.13810 -10.25352 -10.23582  -1.17865
 Alpha  occ. eigenvalues --   -1.02010  -0.74350  -0.61790  -0.52656  -0.49671
 Alpha  occ. eigenvalues --   -0.46727  -0.44555  -0.42285  -0.35334  -0.32766
 Alpha  occ. eigenvalues --   -0.32095  -0.26691
 Alpha virt. eigenvalues --    0.05975   0.10927   0.12356   0.12997   0.16479
 Alpha virt. eigenvalues --    0.21927   0.22484   0.26095   0.42083   0.47724
 Alpha virt. eigenvalues --    0.49530   0.50160   0.52651   0.61417   0.65568
 Alpha virt. eigenvalues --    0.67994   0.71720   0.73475   0.74384   0.77385
 Alpha virt. eigenvalues --    0.81405   0.83987   0.87958   0.88232   0.89963
 Alpha virt. eigenvalues --    0.94320   0.95139   1.01762   1.03942   1.09294
 Alpha virt. eigenvalues --    1.11122   1.13198   1.24937   1.29094   1.34979
 Alpha virt. eigenvalues --    1.37627   1.41004   1.46067   1.49041   1.53569
 Alpha virt. eigenvalues --    1.58637   1.61409   1.65589   1.68965   1.76956
 Alpha virt. eigenvalues --    1.97395   2.01257   2.08854   2.10921   2.16411
 Alpha virt. eigenvalues --    2.35362   2.36217   2.39038   2.47532   2.51638
 Alpha virt. eigenvalues --    2.54247   2.62139   2.65506   2.75327   2.83006
 Alpha virt. eigenvalues --    2.89609   2.92162   2.98576   3.01769   3.05413
 Alpha virt. eigenvalues --    3.10474   3.28362   3.31350   3.35176   3.38062
 Alpha virt. eigenvalues --    3.43993   3.51131   3.53074   3.65246   3.66434
 Alpha virt. eigenvalues --    3.84924   3.91144   3.99159   4.11226   4.13557
 Alpha virt. eigenvalues --    4.22417   4.24180   4.32066   4.37661   4.41041
 Alpha virt. eigenvalues --    4.44270   4.45830   4.50566   4.53658   4.57470
 Alpha virt. eigenvalues --    4.58979   4.62235   4.68892   4.73945   4.76159
 Alpha virt. eigenvalues --    4.77954   4.81274   4.84616   4.99585   5.23430
 Alpha virt. eigenvalues --    5.29794   5.41214   5.47015   5.56338   5.87139
 Alpha virt. eigenvalues --    5.94031   6.03224   6.06035   6.67540   6.68959
 Alpha virt. eigenvalues --    6.80373   6.81518   7.03567   7.28024   7.32946
 Alpha virt. eigenvalues --    7.35563   9.55973  10.87618  11.94011  13.14882
          Condensed to atoms (all electrons):
               1          2          3          4          5          6
     1  C    4.859743   0.358302   0.363621   0.332399  -0.041788  -0.044490
     2  H    0.358302   0.677396  -0.061891  -0.029375  -0.008847   0.005817
     3  H    0.363621  -0.061891   0.677335  -0.032701   0.006109  -0.008563
     4  C    0.332399  -0.029375  -0.032701   4.681164   0.362857   0.362295
     5  H   -0.041788  -0.008847   0.006109   0.362857   0.659799  -0.056455
     6  H   -0.044490   0.005817  -0.008563   0.362295  -0.056455   0.659984
     7  F   -0.039569   0.001249   0.000565   0.399412  -0.023674  -0.022078
     8  O    0.360593  -0.029849  -0.032894  -0.034334   0.000089   0.001189
     9  H   -0.050356  -0.005162  -0.003209   0.006851  -0.000199  -0.000193
               7          8          9
     1  C   -0.039569   0.360593  -0.050356
     2  H    0.001249  -0.029849  -0.005162
     3  H    0.000565  -0.032894  -0.003209
     4  C    0.399412  -0.034334   0.006851
     5  H   -0.023674   0.000089  -0.000199
     6  H   -0.022078   0.001189  -0.000193
     7  F    8.814474   0.003450   0.000095
     8  O    0.003450   7.824040   0.305812
     9  H    0.000095   0.305812   0.455909
 Mulliken charges:
               1
     1  C   -0.098454
     2  H    0.092360
     3  H    0.091628
     4  C   -0.048567
     5  H    0.102110
     6  H    0.102493
     7  F   -0.133924
     8  O   -0.398097
     9  H    0.290451
 Sum of Mulliken charges =  -0.00000
 Mulliken charges with hydrogens summed into heavy atoms:
               1
     1  C    0.085533
     4  C    0.156036
     7  F   -0.133924
     8  O   -0.107645
 APT charges:
               1
     1  C    0.469089
     2  H   -0.085333
     3  H   -0.093730
     4  C    0.580946
     5  H   -0.064255
     6  H   -0.057962
     7  F   -0.443977
     8  O   -0.545419
     9  H    0.240641
 Sum of APT charges =   0.00000
 APT charges with hydrogens summed into heavy atoms:
               1
     1  C    0.290026
     4  C    0.458729
     7  F   -0.443977
     8  O   -0.304778
 Electronic spatial extent (au):  <R**2>=            284.2899
 Charge=              0.0000 electrons
 Dipole moment (field-independent basis, Debye):
    X=             -1.5539    Y=              2.4121    Z=              0.0048  Tot=              2.8692
 Quadrupole moment (field-independent basis, Debye-Ang):
   XX=            -19.7731   YY=            -24.3181   ZZ=            -23.2329
   XY=              1.3553   XZ=              0.1332   YZ=              0.0345
 Traceless Quadrupole moment (field-independent basis, Debye-Ang):
   XX=              2.6682   YY=             -1.8767   ZZ=             -0.7915
   XY=              1.3553   XZ=              0.1332   YZ=              0.0345
 Octapole moment (field-independent basis, Debye-Ang**2):
  XXX=            -11.7855  YYY=             -7.2288  ZZZ=             -0.1000  XYY=              1.2760
  XXY=             -3.2346  XXZ=              0.0163  XZZ=              2.0306  YZZ=             -1.6773
  YYZ=             -0.0260  XYZ=             -0.2132
 Hexadecapole moment (field-independent basis, Debye-Ang**3):
 XXXX=           -155.3819 YYYY=            -96.6625 ZZZZ=            -33.6110 XXXY=              7.8828
 XXXZ=             -0.8412 YYYX=             -2.3548 YYYZ=              0.1724 ZZZX=             -0.1846
 ZZZY=              0.2297 XXYY=            -46.7228 XXZZ=            -36.8740 YYZZ=            -21.0642
 XXYZ=             -0.0367 YYXZ=             -0.5624 ZZXY=             -0.9769
 N-N= 1.311010039439D+02 E-N=-8.619765777176D+02  KE= 2.526598115039D+02
  Exact polarizability:      30.885       1.272      28.281       0.101      -0.122      25.820
 Approx polarizability:      37.590       0.272      39.884      -0.093      -0.123      34.991
 Calling FoFJK, ICntrl=    100127 FMM=F ISym2X=0 I1Cent= 0 IOpClX= 0 NMat=1 NMatS=1 NMatT=0.
 Full mass-weighted force constant matrix:
 Low frequencies --- -204.3942  -11.0965   -0.0016   -0.0009   -0.0007    1.7357
 Low frequencies ---    8.8067  239.8965  287.7923
 ******    1 imaginary frequencies (negative Signs) ****** 
 Diagonal vibrational polarizability:
        2.4162618       5.4705323      55.9188034
 Harmonic frequencies (cm**-1), IR intensities (KM/Mole), Raman scattering
 activities (A**4/AMU), depolarization ratios for plane and unpolarized
 incident light, reduced masses (AMU), force constants (mDyne/A),
 and normal coordinates:
                      1                      2                      3
                      A                      A                      A
 Frequencies --   -204.3933               239.8964               287.7578
 Red. masses --      1.9790                 1.0913                 9.1487
 Frc consts  --      0.0487                 0.0370                 0.4463
 IR Inten    --      0.0889               119.2190                 0.9291
  Atom  AN      X      Y      Z        X      Y      Z        X      Y      Z
     1   6     0.02  -0.02  -0.15     0.00  -0.00  -0.03    -0.04  -0.11   0.04
     2   1    -0.09   0.23  -0.39    -0.01  -0.03  -0.02     0.14  -0.04   0.08
     3   1     0.18  -0.29  -0.33     0.01   0.03  -0.02     0.02   0.02   0.08
     4   6    -0.02  -0.02   0.15    -0.00   0.00   0.01     0.01  -0.10  -0.04
     5   1    -0.21  -0.29   0.34    -0.03  -0.02   0.03    -0.04   0.04  -0.08
     6   1     0.12   0.23   0.41     0.02   0.01   0.04    -0.17  -0.01  -0.08
     7   9     0.02   0.01  -0.11     0.00   0.00   0.01     0.47   0.05   0.01
     8   8    -0.02   0.01   0.12    -0.00  -0.00  -0.07    -0.50   0.07  -0.01
     9   1    -0.01   0.02   0.03    -0.02   0.06   0.99    -0.48   0.43  -0.04
                      4                      5                      6
                      A                      A                      A
 Frequencies --    599.4562               860.4685               904.6091
 Red. masses --      4.9437                 1.2003                 3.3840
 Frc consts  --      1.0467                 0.5236                 1.6316
 IR Inten    --     27.0773                 4.2057                 6.3582
  Atom  AN      X      Y      Z        X      Y      Z        X      Y      Z
     1   6     0.26  -0.20   0.03    -0.04   0.02   0.07    -0.23   0.15  -0.03
     2   1     0.13  -0.14  -0.09    -0.39   0.22  -0.26    -0.36   0.03  -0.00
     3   1     0.37  -0.28  -0.03     0.37  -0.24  -0.18    -0.33   0.08  -0.04
     4   6     0.23   0.17   0.03    -0.01  -0.00   0.08     0.29   0.14   0.01
     5   1     0.38   0.24  -0.04     0.42   0.22  -0.16     0.27  -0.03   0.09
     6   1     0.13   0.11  -0.09    -0.36  -0.19  -0.26     0.54   0.04   0.08
     7   9    -0.19   0.13  -0.01     0.02  -0.02  -0.03     0.02  -0.08  -0.01
     8   8    -0.19  -0.15  -0.01     0.01   0.02  -0.03    -0.07  -0.10   0.02
     9   1    -0.16   0.41  -0.03     0.01  -0.07   0.03    -0.09  -0.39   0.02
                      7                      8                      9
                      A                      A                      A
 Frequencies --   1107.1545              1120.5756              1166.8484
 Red. masses --      4.9320                 4.9084                 1.7111
 Frc consts  --      3.5619                 3.6314                 1.3726
 IR Inten    --      8.8403               167.4769                 6.4073
  Atom  AN      X      Y      Z        X      Y      Z        X      Y      Z
     1   6     0.10   0.35   0.01     0.17   0.22   0.05    -0.02  -0.03   0.17
     2   1     0.28   0.49  -0.05    -0.08   0.22  -0.08    -0.07   0.45  -0.22
     3   1     0.24   0.20  -0.07     0.06  -0.05  -0.03     0.10  -0.52  -0.11
     4   6    -0.02  -0.29  -0.02    -0.22   0.29  -0.04     0.03  -0.01  -0.16
     5   1     0.07  -0.21  -0.06    -0.24   0.10   0.02    -0.21  -0.38   0.09
     6   1     0.06  -0.33  -0.02    -0.13   0.33   0.06     0.21   0.32   0.19
     7   9    -0.03   0.18   0.01     0.07  -0.22  -0.00    -0.01   0.01   0.03
     8   8    -0.07  -0.25   0.00    -0.03  -0.20  -0.00     0.01   0.03  -0.05
     9   1    -0.08  -0.29   0.02     0.01   0.65  -0.05     0.00  -0.08   0.01
                     10                     11                     12
                      A                      A                      A
 Frequencies --   1239.3086              1273.9894              1294.6207
 Red. masses --      1.1129                 1.1007                 1.1009
 Frc consts  --      1.0070                 1.0525                 1.0872
 IR Inten    --     14.1541                11.5722                 2.1655
  Atom  AN      X      Y      Z        X      Y      Z        X      Y      Z
     1   6    -0.02   0.02   0.02     0.03  -0.01   0.01     0.01  -0.02   0.04
     2   1    -0.59  -0.29  -0.01    -0.24  -0.21   0.02     0.22   0.22  -0.04
     3   1     0.06  -0.00  -0.02     0.66   0.38   0.01    -0.09  -0.19  -0.01
     4   6     0.01  -0.06  -0.03    -0.02   0.03  -0.05    -0.01   0.02   0.05
     5   1    -0.17   0.01   0.01    -0.24   0.05   0.02    -0.43   0.51  -0.01
     6   1     0.31  -0.24   0.01     0.15   0.03   0.04     0.41  -0.47  -0.06
     7   9     0.00   0.03  -0.01     0.00  -0.01  -0.00     0.00  -0.01  -0.04
     8   8     0.03  -0.01   0.02    -0.03   0.02   0.03    -0.01   0.01  -0.02
     9   1     0.06   0.61  -0.03    -0.05  -0.47   0.04    -0.01  -0.14   0.01
                     13                     14                     15
                      A                      A                      A
 Frequencies --   1433.4430              1469.1651              1517.4330
 Red. masses --      1.2617                 1.4070                 1.0862
 Frc consts  --      1.5274                 1.7893                 1.4736
 IR Inten    --     15.3853                 0.7859                 1.0603
  Atom  AN      X      Y      Z        X      Y      Z        X      Y      Z
     1   6    -0.04  -0.04  -0.01     0.16   0.03   0.00    -0.02   0.04  -0.00
     2   1     0.24   0.07   0.04    -0.45  -0.28  -0.05     0.08  -0.24   0.24
     3   1     0.18   0.06  -0.02    -0.52  -0.29   0.05     0.10  -0.29  -0.18
     4   6    -0.12   0.06  -0.00    -0.06   0.01   0.00    -0.03  -0.06  -0.01
     5   1     0.59  -0.34  -0.07     0.20  -0.15  -0.03     0.22   0.49  -0.31
     6   1     0.55  -0.32   0.09     0.14  -0.12   0.02     0.18   0.40   0.42
     7   9     0.01   0.01   0.00     0.01   0.01   0.00    -0.00  -0.01  -0.00
     8   8     0.01  -0.00   0.00    -0.04   0.04  -0.01    -0.00   0.01  -0.00
     9   1     0.01   0.07  -0.00    -0.06  -0.47   0.02     0.00  -0.00   0.00
                     16                     17                     18
                      A                      A                      A
 Frequencies --   1535.1748              2966.4425              2990.0653
 Red. masses --      1.0774                 1.0567                 1.1046
 Frc consts  --      1.4960                 5.4786                 5.8188
 IR Inten    --      1.2628                57.0434                38.9278
  Atom  AN      X      Y      Z        X      Y      Z        X      Y      Z
     1   6     0.02  -0.06   0.01    -0.04   0.05  -0.02     0.01  -0.02  -0.09
     2   1    -0.21   0.39  -0.42     0.18  -0.31  -0.43    -0.29   0.46   0.59
     3   1    -0.22   0.48   0.31     0.20  -0.33   0.72     0.15  -0.23   0.46
     4   6    -0.02  -0.04  -0.00    -0.00  -0.01   0.00     0.00   0.00   0.02
     5   1     0.15   0.26  -0.18     0.01   0.02   0.04    -0.07  -0.08  -0.20
     6   1     0.14   0.21   0.25     0.04   0.05  -0.08     0.03   0.04  -0.05
     7   9    -0.00  -0.00  -0.00     0.00  -0.00  -0.00    -0.00   0.00  -0.00
     8   8     0.00  -0.01   0.00     0.00   0.00  -0.00    -0.00  -0.00   0.00
     9   1     0.01   0.03  -0.00     0.00   0.01  -0.00     0.00  -0.00   0.00
                     19                     20                     21
                      A                      A                      A
 Frequencies --   3022.4917              3065.2162              3833.1180
 Red. masses --      1.0565                 1.1095                 1.0664
 Frc consts  --      5.6868                 6.1416                 9.2315
 IR Inten    --     55.3055                65.5022                23.7493
  Atom  AN      X      Y      Z        X      Y      Z        X      Y      Z
     1   6     0.01  -0.01  -0.01     0.00  -0.00  -0.02    -0.00   0.00  -0.00
     2   1    -0.06   0.09   0.12    -0.05   0.08   0.10     0.00   0.00  -0.00
     3   1    -0.00   0.01  -0.02     0.04  -0.06   0.13     0.00   0.00  -0.00
     4   6    -0.04  -0.05  -0.01     0.01   0.01  -0.09     0.00   0.00   0.00
     5   1     0.21   0.26   0.65     0.20   0.23   0.55    -0.00  -0.00  -0.00
     6   1     0.26   0.34  -0.50    -0.31  -0.39   0.55    -0.00  -0.00  -0.00
     7   9     0.00  -0.00  -0.00    -0.00   0.00   0.00     0.00  -0.00  -0.00
     8   8     0.00  -0.00   0.00    -0.00  -0.00   0.00    -0.06   0.00  -0.00
     9   1     0.00   0.00   0.00     0.00  -0.00   0.00     1.00  -0.05   0.02

 -------------------
 - Thermochemistry -
 -------------------
 Temperature   298.150 Kelvin.  Pressure   1.00000 Atm.
 Atom     1 has atomic number  6 and mass  12.00000
 Atom     2 has atomic number  1 and mass   1.00783
 Atom     3 has atomic number  1 and mass   1.00783
 Atom     4 has atomic number  6 and mass  12.00000
 Atom     5 has atomic number  1 and mass   1.00783
 Atom     6 has atomic number  1 and mass   1.00783
 Atom     7 has atomic number  9 and mass  18.99840
 Atom     8 has atomic number  8 and mass  15.99491
 Atom     9 has atomic number  1 and mass   1.00783
 Molecular mass:    64.03244 amu.
 Principal axes and moments of inertia in atomic units:
                           1         2         3
     Eigenvalues --   122.10889 296.44830 395.09023
           X            0.99913   0.04134   0.00489
           Y           -0.04133   0.99914  -0.00149
           Z           -0.00495   0.00129   0.99999
 This molecule is an asymmetric top.
 Rotational symmetry number  1.
 Rotational temperatures (Kelvin)      0.70932     0.29217     0.21923
 Rotational constants (GHZ):          14.77977     6.08788     4.56792
    1 imaginary frequencies ignored.
 Zero-point vibrational energy     190967.3 (Joules/Mol)
                                   45.64227 (Kcal/Mol)
 Warning -- explicit consideration of   3 degrees of freedom as
           vibrations may cause significant error
 Vibrational temperatures:    345.16   414.02   862.48  1238.02  1301.53
          (Kelvin)           1592.95  1612.26  1678.83  1783.09  1832.99
                             1862.67  2062.40  2113.80  2183.25  2208.77
                             4268.05  4302.04  4348.69  4410.16  5515.00
 
 Zero-point correction=                           0.072736 (Hartree/Particle)
 Thermal correction to Energy=                    0.076906
 Thermal correction to Enthalpy=                  0.077850
 Thermal correction to Gibbs Free Energy=         0.046058
 Sum of electronic and zero-point Energies=           -254.197847
 Sum of electronic and thermal Energies=              -254.193676
 Sum of electronic and thermal Enthalpies=            -254.192732
 Sum of electronic and thermal Free Energies=         -254.224525
 
                     E (Thermal)             CV                S
                      KCal/Mol        Cal/Mol-Kelvin    Cal/Mol-Kelvin
 Total                   48.259             13.093             66.913
 Electronic               0.000              0.000              0.000
 Translational            0.889              2.981             38.389
 Rotational               0.889              2.981             24.173
 Vibrational             46.482              7.131              4.351
 Vibration     1          0.657              1.779              1.804
 Vibration     2          0.685              1.696              1.487
 Vibration     3          0.958              1.033              0.451
                       Q            Log10(Q)             Ln(Q)
 Total Bot       0.653131D-21        -21.185000        -48.780264
 Total V=0       0.186647D+13         12.271021         28.255070
 Vib (Bot)       0.757538D-33        -33.120595        -76.262989
 Vib (Bot)    1  0.817394D+00         -0.087569         -0.201634
 Vib (Bot)    2  0.665373D+00         -0.176935         -0.407408
 Vib (Bot)    3  0.249231D+00         -0.603398         -1.389376
 Vib (V=0)       0.216484D+01          0.335425          0.772345
 Vib (V=0)    1  0.145819D+01          0.163815          0.377198
 Vib (V=0)    2  0.133230D+01          0.124602          0.286906
 Vib (V=0)    3  0.105867D+01          0.024762          0.057017
 Electronic      0.100000D+01          0.000000          0.000000
 Translational   0.201397D+08          7.304054         16.818206
 Rotational      0.428097D+05          4.631542         10.664519
 ***** Axes restored to original set *****
 -------------------------------------------------------------------
 Center     Atomic                   Forces (Hartrees/Bohr)
 Number     Number              X              Y              Z
 -------------------------------------------------------------------
      1        6           0.000318016   -0.000261444   -0.004511284
      2        1          -0.000014167    0.000016288    0.000007127
      3        1           0.000011491    0.000022561   -0.000003836
      4        6          -0.000376208   -0.000274017    0.004643885
      5        1           0.000002283    0.000000946   -0.000003059
      6        1           0.000012289   -0.000005511   -0.000003125
      7        9           0.000210436    0.000263308   -0.002911912
      8        8          -0.000164404    0.000235641    0.002780770
      9        1           0.000000264    0.000002228    0.000001436
 -------------------------------------------------------------------
 Cartesian Forces:  Max     0.004643885 RMS     0.001474636

 GradGradGradGradGradGradGradGradGradGradGradGradGradGradGradGradGradGrad
 Berny optimization.
 Search for a local minimum.
 Step number   1 out of a maximum of    2
 All quantities printed in internal units (Hartrees-Bohrs-Radians)
 Second derivative matrix not updated -- analytic derivatives used.
 ITU=  0
     Eigenvalues ---   -0.00444   0.00333   0.02772   0.03727   0.05740
     Eigenvalues ---    0.07377   0.07720   0.07907   0.10965   0.12046
     Eigenvalues ---    0.15478   0.15867   0.20278   0.29309   0.48021
     Eigenvalues ---    0.67172   0.69312   0.75077   0.78794   0.85457
     Eigenvalues ---    1.06053
 Eigenvalue     1 is  -4.44D-03 should be greater than     0.000000 Eigenvector:
                          Z6        Z2        Y5        Y3        Z7
   1                    0.35819  -0.34372  -0.33274  -0.32234  -0.28750
                          Z8        Z5        Z3        Y6        Y2
   1                    0.28574   0.28560  -0.28244   0.28115   0.26484
 Quadratic step=5.991D-01 exceeds max=3.000D-01 adjusted using Lamda=-4.410D-03.
 Angle between NR and scaled steps=   2.94 degrees.
 Angle between quadratic step and forces=  66.18 degrees.
 Linear search not attempted -- first point.
 B after Tr=     0.000709    0.002495   -0.005492
         Rot=    0.999980   -0.001393   -0.006206   -0.000218 Ang=  -0.73 deg.
 Variable       Old X    -DE/DX   Delta X   Delta X   Delta X     New X
                                 (Linear)    (Quad)   (Total)
    X1       -1.38694   0.00032   0.00000   0.00500   0.00377  -1.38317
    Y1        1.24130  -0.00026   0.00000  -0.00567  -0.00347   1.23783
    Z1       -0.08791  -0.00451   0.00000  -0.03527  -0.02015  -0.10806
    X2       -2.10651  -0.00001   0.00000  -0.00641   0.01003  -2.09648
    Y2        2.45602   0.00002   0.00000   0.07460   0.07240   2.52842
    Z2        1.44003   0.00001   0.00000  -0.10095  -0.07326   1.36677
    X3       -1.93489   0.00001   0.00000   0.02994   0.00549  -1.92940
    Y3        2.13429   0.00002   0.00000  -0.09194  -0.08483   2.04946
    Z3       -1.88654  -0.00000   0.00000  -0.08375  -0.05974  -1.94628
    X4        1.53745  -0.00038   0.00000  -0.00555  -0.00380   1.53364
    Y4        1.12341  -0.00027   0.00000  -0.00425  -0.00143   1.12198
    Z4        0.09128   0.00464   0.00000   0.03980   0.01841   0.10969
    X5        2.17962   0.00000   0.00000  -0.03677  -0.01229   2.16733
    Y5        1.89886   0.00000   0.00000  -0.08891  -0.09099   1.80787
    Z5        1.90349  -0.00000   0.00000   0.08538   0.05818   1.96167
    X6        2.39885   0.00001   0.00000   0.01215  -0.00471   2.39414
    Y6        2.23990  -0.00001   0.00000   0.07327   0.08053   2.32043
    Z6       -1.42715  -0.00000   0.00000   0.10416   0.07530  -1.35185
    X7        2.39283   0.00021   0.00000   0.00890   0.00794   2.40076
    Y7       -1.31566   0.00026   0.00000   0.00954   0.01358  -1.30207
    Z7       -0.06961  -0.00291   0.00000  -0.09429  -0.13322  -0.20283
    X8       -2.35137  -0.00016   0.00000  -0.00700  -0.00343  -2.35480
    Y8       -1.24348   0.00024   0.00000   0.00877   0.00971  -1.23377
    Z8        0.06782   0.00278   0.00000   0.10712   0.12745   0.19526
    X9       -4.16452   0.00000   0.00000  -0.00447  -0.00299  -4.16751
    Y9       -1.12859   0.00000   0.00000   0.00387   0.00449  -1.12410
    Z9        0.03386   0.00000   0.00000  -0.03607   0.00704   0.04090
         Item               Value     Threshold  Converged?
 Maximum Force            0.004644     0.000450     NO 
 RMS     Force            0.001475     0.000300     NO 
 Maximum Displacement     0.133224     0.001800     NO 
 RMS     Displacement     0.054674     0.001200     NO 
 Predicted change in Energy=-1.046721D-03
 GradGradGradGradGradGradGradGradGradGradGradGradGradGradGradGradGradGrad


 ----------------------------------------------------------------------

 Electric dipole moment (input orientation):
 (Debye = 10**-18 statcoulomb cm , SI units = C m)
                  (au)            (Debye)         (10**-30 SI)
   Tot        0.112885D+01      0.286924D+01      0.957077D+01
   x         -0.611334D+00     -0.155386D+01     -0.518311D+01
   y          0.948980D+00      0.241207D+01      0.804579D+01
   z          0.189729D-02      0.482243D-02      0.160859D-01

 Dipole polarizability, Alpha (input orientation).
 (esu units = cm**3 , SI units = C**2 m**2 J**-1)
 Alpha(0;0):
               (au)            (10**-24 esu)      (10**-40 SI)
   iso        0.283287D+02      0.419787D+01      0.467076D+01
   aniso      0.491660D+01      0.728564D+00      0.810637D+00
   xx         0.308851D+02      0.457671D+01      0.509227D+01
   yx         0.127151D+01      0.188419D+00      0.209644D+00
   yy         0.282809D+02      0.419079D+01      0.466288D+01
   zx         0.100842D+00      0.149433D-01      0.166266D-01
   zy        -0.122463D+00     -0.181471D-01     -0.201914D-01
   zz         0.258200D+02      0.382612D+01      0.425714D+01

 ----------------------------------------------------------------------

 Dipole orientation:
     6         -0.46429431         -0.19094120          1.79447228
     1          0.40637854         -1.44476855          3.20789665
     1         -1.41999995          1.33501780          2.83890111
     6          1.64732066          0.95284938          0.11194986
     1          3.43533314         -0.05039003          0.41911322
     1          1.94164649          2.94962337          0.58148767
     9          1.05656353          0.75863630         -2.40199098
     8         -2.19134932         -1.49188396          0.22816869
     1         -3.43979579         -2.25358822          1.30661260

 Electric dipole moment (dipole orientation):
 (Debye = 10**-18 statcoulomb cm , SI units = C m)
                  (au)            (Debye)         (10**-30 SI)
   Tot        0.112885D+01      0.286924D+01      0.957077D+01
   x          0.000000D+00      0.000000D+00      0.000000D+00
   y          0.000000D+00      0.000000D+00      0.000000D+00
   z          0.112885D+01      0.286924D+01      0.957077D+01

 Dipole polarizability, Alpha (dipole orientation).
 (esu units = cm**3 , SI units = C**2 m**2 J**-1)
 Alpha(0;0):
               (au)            (10**-24 esu)      (10**-40 SI)
   iso        0.283287D+02      0.419787D+01      0.467076D+01
   aniso      0.491660D+01      0.728564D+00      0.810637D+00
   xx         0.296960D+02      0.440049D+01      0.489621D+01
   yx         0.247704D+01      0.367059D+00      0.408408D+00
   yy         0.274036D+02      0.406080D+01      0.451824D+01
   zx        -0.641988D+00     -0.951329D-01     -0.105850D+00
   zy        -0.222013D+00     -0.328989D-01     -0.366050D-01
   zz         0.278864D+02      0.413233D+01      0.459784D+01

 ----------------------------------------------------------------------
 Unable to Open any file for archive entry.
 1\1\GINC-COMPUTE-2-2\Freq\RB3LYP\6-31G(2df,p)\C2H5F1O1\JINGDAN2\05-Dec
 -2024\0\\# freq b3lyp/6-31g(2df,p)\\energy: -15.614184499692 gnorm: 0.
 000439253721 xtb: 6.6.1 (8d0f1dd)\\0,1\C,-0.733939,0.656866,-0.046519\
 H,-1.114718,1.299668,0.762032\H,-1.023901,1.129418,-0.998313\C,0.81358
 1,0.594483,0.048303\H,1.153407,1.004834,1.007284\H,1.269418,1.185303,-
 0.755216\F,1.266229,-0.696216,-0.036834\O,-1.244293,-0.65802,0.035887\
 H,-2.203769,-0.597225,0.017919\\Version=ES64L-G16RevC.01\State=1-A\HF=
 -254.2705821\RMSD=4.678e-09\RMSF=1.475e-03\ZeroPoint=0.0727356\Thermal
 =0.0769061\ETot=-254.1936761\HTot=-254.1927319\GTot=-254.2245246\Dipol
 e=-0.6113343,0.9489804,0.0018973\DipoleDeriv=0.3269825,0.1939429,-0.01
 33397,0.1407697,0.6740291,-0.0244547,-0.0110202,-0.0263646,0.4062549,-
 0.0435542,0.0324405,0.0433888,0.0058806,-0.109861,-0.0891334,0.0644023
 ,-0.1209759,-0.1025835,-0.0463991,0.0097595,-0.0463064,-0.0129721,-0.0
 744423,0.084874,-0.0603009,0.1179851,-0.1603479,0.5132026,-0.1657716,-
 0.0106988,-0.1051367,0.8016135,0.0268369,-0.0082624,0.0299037,0.428021
 4,-0.0411938,-0.0056142,-0.0522327,-0.0050832,-0.0231537,-0.0504687,-0
 .0777392,-0.0871129,-0.128418,-0.0469046,-0.0322387,0.0505536,-0.02880
 76,-0.050762,0.0608553,0.0773473,0.0988673,-0.0762194,-0.3925628,0.198
 739,0.0133114,0.2211079,-0.7188986,-0.0394807,0.0098192,-0.0367649,-0.
 2204686,-0.4024034,-0.2745108,0.0222827,-0.2714679,-0.7528067,0.024575
 2,0.0192253,0.0187222,-0.4810466,0.1328328,0.0432533,-0.0069589,0.0557
 093,0.2542818,0.006396,-0.0134714,0.0057399,0.3348077\Polar=30.8851438
 ,1.2715137,28.2808586,0.1008423,-0.1224629,25.8199648\Quadrupole=1.983
 7683,-1.3952917,-0.5884766,1.0076189,0.0990625,0.0256646\PG=C01 [X(C2H
 5F1O1)]\NImag=1\\0.48386333,-0.02742591,0.50895602,0.00057968,0.006746
 37,0.57108696,-0.08405501,0.04852452,0.06555537,0.08819478,0.04572429,
 -0.11613006,-0.09228933,-0.04898767,0.14161508,0.06764982,-0.09715026,
 -0.19247906,-0.06857957,0.11012328,0.20003934,-0.07010566,0.02768479,-
 0.05620841,0.00489423,-0.00259487,0.01122564,0.07524851,0.02678458,-0.
 08196728,0.07336696,-0.00300872,0.00982187,-0.01486569,-0.02352053,0.1
 0348219,-0.05766202,0.07695116,-0.23798932,-0.00747242,0.00824820,-0.0
 2339602,0.06007338,-0.09297856,0.25188587,-0.16781876,-0.00625711,-0.0
 1174128,-0.00968273,0.00169238,-0.00329552,-0.01036200,-0.00046156,0.0
 0099216,0.47039400,0.01047600,-0.06739665,0.00058989,0.01586459,0.0000
 3149,0.00245751,0.00886068,0.00015400,-0.00119135,0.03436398,0.5277977
 9,-0.01189519,0.00119329,-0.08202822,0.02259017,-0.00489664,0.00197761
 ,-0.02862194,0.00462216,-0.00078360,-0.00320683,-0.00887498,0.60292164
 ,-0.01113885,-0.00744193,-0.02836079,0.00090354,-0.00050869,0.00014678
 ,-0.00483051,0.00045106,-0.00054980,-0.07717226,-0.03009021,-0.0706691
 8,0.08227744,0.00093774,0.00199503,-0.00335249,0.00113218,0.00152047,0
 .00052993,-0.00046306,0.00000372,0.00028671,-0.02825516,-0.07489617,-0
 .06389498,0.02422038,0.09714085,0.00148679,0.00141255,-0.00031424,-0.0
 0044874,0.00048648,0.00193781,-0.00054640,-0.00023237,0.00149108,-0.06
 968607,-0.07291020,-0.25311103,0.07386373,0.08727047,0.26525814,-0.011
 25908,-0.01482737,0.02232490,-0.00282655,0.00103541,-0.00003014,0.0009
 0907,-0.00073845,-0.00051686,-0.09855055,-0.05609618,0.08239430,0.0056
 6575,0.00370244,-0.00850036,0.10337790,-0.00122782,0.00356804,0.004017
 43,-0.00140377,-0.00071643,-0.00035977,0.00081173,0.00146609,-0.000493
 78,-0.05192728,-0.10958899,0.08611110,0.00307324,0.00976066,-0.0072462
 8,0.05540499,0.13552131,-0.00433875,-0.00220137,0.00278232,-0.00016215
 ,0.00031821,0.00089104,0.00015615,-0.00049090,0.00184821,0.08243636,0.
 09543088,-0.20023021,0.01293312,0.01391186,-0.02124618,-0.08513072,-0.
 10688997,0.20503914,-0.01747020,0.03972097,0.00454306,-0.00564185,0.00
 008531,-0.00142543,-0.00263384,0.00015568,0.00012722,-0.08288683,0.058
 69655,0.00470674,0.00659996,-0.00177130,0.00364897,0.00824122,-0.00568
 749,-0.00466587,0.09393117,0.01217466,-0.01974168,-0.00153012,0.002386
 20,0.00024287,0.00126881,0.00208196,0.00020371,0.00008967,0.06120873,-
 0.26151164,-0.01494266,0.01122215,-0.03584534,-0.00868690,0.01243215,-
 0.04014778,0.00086025,-0.09558805,0.35136335,0.00184706,0.00088314,0.0
 0284749,0.00019755,0.00071676,0.00019102,0.00030460,-0.00084695,-0.000
 02746,0.00302319,-0.01368196,-0.06986664,0.01231542,-0.03563277,0.0060
 1914,-0.01056938,0.02553470,0.01073869,-0.00728100,0.02288118,0.048396
 95,-0.10639840,-0.06732304,0.00413030,0.00655280,0.00186440,-0.0051224
 1,0.00573257,-0.00129395,0.00478531,-0.02337436,-0.04036549,0.00398705
 ,-0.00215363,0.00055144,0.00012571,-0.00510850,0.00092664,-0.00101271,
 -0.00090188,-0.00395839,0.00019917,0.63944099,-0.01807613,-0.22145285,
 0.01309074,-0.01472076,-0.03731736,-0.00115217,-0.01312534,-0.03376740
 ,0.00830273,-0.00931786,-0.00634062,-0.00018393,-0.00035777,0.00015788
 ,-0.00017410,0.00029234,-0.00017418,-0.00069076,0.00190890,0.00437044,
 0.00014906,0.04037505,0.33669002,-0.00016451,0.01209563,-0.06267038,-0
 .01077728,-0.02339329,0.01010233,0.01275917,0.03172360,0.00645596,0.00
 139259,-0.00181374,0.00072745,0.00036701,0.00078251,0.00017325,-0.0000
 5005,-0.00065332,0.00020321,0.00030426,0.00002160,0.00152444,0.0044211
 9,-0.02235501,0.04621616,-0.01561737,0.00734508,-0.00082285,0.00166078
 ,0.00168944,-0.00056916,0.00114763,0.00163188,0.00022304,-0.00054652,-
 0.00170991,0.00071487,-0.00015144,-0.00005466,0.00005636,-0.00044926,0
 .00002976,-0.00021543,0.00076225,-0.00195941,-0.00003661,-0.51378960,0
 .01302158,-0.00825239,0.52698353,-0.04936741,-0.00783056,-0.00063945,0
 .00021343,0.00093206,-0.00085164,0.00026464,0.00060310,0.00078523,-0.0
 0104611,-0.00824920,0.00086664,-0.00056822,0.00016290,0.00008035,-0.00
 120532,0.00031129,-0.00024821,0.00247943,0.00106607,-0.00000315,0.0692
 2334,-0.04216593,0.00359201,-0.01999376,0.05517028,0.00249711,0.000069
 49,-0.00123556,-0.00090292,0.00068634,0.00073592,0.00085781,-0.0002982
 5,0.00051528,0.00008540,-0.00000605,0.00039298,-0.00004630,0.00009876,
 -0.00020797,0.00007830,-0.00002011,-0.00002624,0.00004204,0.00003816,0
 .00017636,-0.01151360,0.00301344,-0.00273243,0.00890216,-0.00358178,0.
 00238164\\-0.00031802,0.00026144,0.00451128,0.00001417,-0.00001629,-0.
 00000713,-0.00001149,-0.00002256,0.00000384,0.00037621,0.00027402,-0.0
 0464388,-0.00000228,-0.00000095,0.00000306,-0.00001229,0.00000551,0.00
 000313,-0.00021044,-0.00026331,0.00291191,0.00016440,-0.00023564,-0.00
 278077,-0.00000026,-0.00000223,-0.00000144\\\@
 The archive entry for this job was punched.


 IF AT FIRST YOU DON'T SUCCEED, TRY LOOKING IN 
 THE WASTEBASKET FOR THE DIRECTIONS.
 Job cpu time:       0 days  0 hours  7 minutes 32.7 seconds.
 Elapsed time:       0 days  0 hours  0 minutes 57.9 seconds.
 File lengths (MBytes):  RWF=     21 Int=      0 D2E=      0 Chk=      2 Scr=      1
 Normal termination of Gaussian 16 at Thu Dec  5 18:22:50 2024.
