 Entering Gaussian System, Link 0=g16
 Input=rotation_std6.gjf
 Output=rotation_std6.log
 Initial command:
 /share/apps/gaussian/g16/l1.exe "/scratch/jingdan2/247470/Gau-453130.inp" -scrdir="/scratch/jingdan2/247470/"
 Entering Link 1 = /share/apps/gaussian/g16/l1.exe PID=    453131.
  
 Copyright (c) 1988-2019, Gaussian, Inc.  All Rights Reserved.
  
 This is part of the Gaussian(R) 16 program.  It is based on
 the Gaussian(R) 09 system (copyright 2009, Gaussian, Inc.),
 the Gaussian(R) 03 system (copyright 2003, Gaussian, Inc.),
 the Gaussian(R) 98 system (copyright 1998, Gaussian, Inc.),
 the Gaussian(R) 94 system (copyright 1995, Gaussian, Inc.),
 the Gaussian 92(TM) system (copyright 1992, Gaussian, Inc.),
 the Gaussian 90(TM) system (copyright 1990, Gaussian, Inc.),
 the Gaussian 88(TM) system (copyright 1988, Gaussian, Inc.),
 the Gaussian 86(TM) system (copyright 1986, Carnegie Mellon
 University), and the Gaussian 82(TM) system (copyright 1983,
 Carnegie Mellon University). Gaussian is a federally registered
 trademark of Gaussian, Inc.
  
 This software contains proprietary and confidential information,
 including trade secrets, belonging to Gaussian, Inc.
  
 This software is provided under written license and may be
 used, copied, transmitted, or stored only in accord with that
 written license.
  
 The following legend is applicable only to US Government
 contracts under FAR:
  
                    RESTRICTED RIGHTS LEGEND
  
 Use, reproduction and disclosure by the US Government is
 subject to restrictions as set forth in subparagraphs (a)
 and (c) of the Commercial Computer Software - Restricted
 Rights clause in FAR 52.227-19.
  
 Gaussian, Inc.
 340 Quinnipiac St., Bldg. 40, Wallingford CT 06492
  
  
 ---------------------------------------------------------------
 Warning -- This program may not be used in any manner that
 competes with the business of Gaussian, Inc. or will provide
 assistance to any competitor of Gaussian, Inc.  The licensee
 of this program is prohibited from giving any competitor of
 Gaussian, Inc. access to this program.  By using this program,
 the user acknowledges that Gaussian, Inc. is engaged in the
 business of creating and licensing software in the field of
 computational chemistry and represents and warrants to the
 licensee that it is not a competitor of Gaussian, Inc. and that
 it will not use this program in any manner prohibited above.
 ---------------------------------------------------------------
  

 Cite this work as:
 Gaussian 16, Revision C.01,
 M. J. Frisch, G. W. Trucks, H. B. Schlegel, G. E. Scuseria, 
 M. A. Robb, J. R. Cheeseman, G. Scalmani, V. Barone, 
 G. A. Petersson, H. Nakatsuji, X. Li, M. Caricato, A. V. Marenich, 
 J. Bloino, B. G. Janesko, R. Gomperts, B. Mennucci, H. P. Hratchian, 
 J. V. Ortiz, A. F. Izmaylov, J. L. Sonnenberg, D. Williams-Young, 
 F. Ding, F. Lipparini, F. Egidi, J. Goings, B. Peng, A. Petrone, 
 T. Henderson, D. Ranasinghe, V. G. Zakrzewski, J. Gao, N. Rega, 
 G. Zheng, W. Liang, M. Hada, M. Ehara, K. Toyota, R. Fukuda, 
 J. Hasegawa, M. Ishida, T. Nakajima, Y. Honda, O. Kitao, H. Nakai, 
 T. Vreven, K. Throssell, J. A. Montgomery, Jr., J. E. Peralta, 
 F. Ogliaro, M. J. Bearpark, J. J. Heyd, E. N. Brothers, K. N. Kudin, 
 V. N. Staroverov, T. A. Keith, R. Kobayashi, J. Normand, 
 K. Raghavachari, A. P. Rendell, J. C. Burant, S. S. Iyengar, 
 J. Tomasi, M. Cossi, J. M. Millam, M. Klene, C. Adamo, R. Cammi, 
 J. W. Ochterski, R. L. Martin, K. Morokuma, O. Farkas, 
 J. B. Foresman, and D. J. Fox, Gaussian, Inc., Wallingford CT, 2019.
 
 ******************************************
 Gaussian 16:  ES64L-G16RevC.01  3-Jul-2019
                 5-Dec-2024 
 ******************************************
 %nprocshared=8
 Will use up to    8 processors via shared memory.
 %mem=8GB
 -------------------------
 # freq b3lyp/6-31g(2df,p)
 -------------------------
 1/10=4,30=1,38=1/1,3;
 2/12=2,17=6,18=5,40=1/2;
 3/5=1,6=6,7=104,11=2,25=1,30=1,71=2,74=-5,140=1/1,2,3;
 4//1;
 5/5=2,38=5,98=1/2;
 8/6=4,10=90,11=11/1;
 11/6=1,8=1,9=11,15=111,16=1/1,2,10;
 10/6=1/2;
 6/7=2,8=2,9=2,10=2,28=1/1;
 7/8=1,10=1,25=1/1,2,3,16;
 1/10=4,30=1/3;
 99//99;
 -------------------------------------------------------------------
 energy: -15.614184499692 gnorm: 0.000439253721 xtb: 6.6.1 (8d0f1dd)
 -------------------------------------------------------------------
 Symbolic Z-matrix:
 Charge =  0 Multiplicity = 1
 C                    -0.59136   0.47533  -0.25242 
 H                    -0.33181   1.32924   0.39082 
 H                    -0.82232   0.86479  -1.25453 
 C                     0.6345   -0.44408  -0.28664 
 H                     0.91576  -0.72454  -1.30763 
 H                     0.39609  -1.35144   0.2798 
 F                     1.71795   0.17789   0.30004 
 O                    -1.67673  -0.27306   0.27275 
 H                    -2.46425   0.27802   0.24358 
 

 GradGradGradGradGradGradGradGradGradGradGradGradGradGradGradGradGradGrad
 Berny optimization.
 Initialization pass.
 Trust Radius=3.00D-01 FncErr=1.00D-07 GrdErr=1.00D-07 EigMax=2.50D+02 EigMin=1.00D-04
 Number of steps in this run=      2 maximum allowed number of steps=      2.
 GradGradGradGradGradGradGradGradGradGradGradGradGradGradGradGradGradGrad

                          Input orientation:                          
 ---------------------------------------------------------------------
 Center     Atomic      Atomic             Coordinates (Angstroms)
 Number     Number       Type             X           Y           Z
 ---------------------------------------------------------------------
      1          6           0       -0.591364    0.475326   -0.252424
      2          1           0       -0.331807    1.329242    0.390820
      3          1           0       -0.822320    0.864790   -1.254528
      4          6           0        0.634496   -0.444084   -0.286635
      5          1           0        0.915764   -0.724540   -1.307627
      6          1           0        0.396088   -1.351444    0.279795
      7          9           0        1.717952    0.177888    0.300039
      8          8           0       -1.676730   -0.273064    0.272745
      9          1           0       -2.464248    0.278020    0.243584
 ---------------------------------------------------------------------
                    Distance matrix (angstroms):
                    1          2          3          4          5
     1  C    0.000000
     2  H    1.100139   0.000000
     3  H    1.099652   1.778620   0.000000
     4  C    1.532716   2.130111   2.184555   0.000000
     5  H    2.196490   2.942648   2.355786   1.095533   0.000000
     6  H    2.143690   2.779970   2.958100   1.095894   1.784091
     7  F    2.393037   2.352737   3.056386   1.380186   2.010590
     8  O    1.419123   2.095267   2.087413   2.384097   3.069598
     9  H    1.947472   2.382027   2.298818   3.225644   3.851735
                    6          7          8          9
     6  H    0.000000
     7  F    2.021532   0.000000
     8  O    2.336563   3.424612   0.000000
     9  H    3.292110   4.183779   0.961628   0.000000
 Stoichiometry    C2H5FO
 Framework group  C1[X(C2H5FO)]
 Deg. of freedom    21
 Full point group                 C1      NOp   1
 Largest Abelian subgroup         C1      NOp   1
 Largest concise Abelian subgroup C1      NOp   1
                         Standard orientation:                         
 ---------------------------------------------------------------------
 Center     Atomic      Atomic             Coordinates (Angstroms)
 Number     Number       Type             X           Y           Z
 ---------------------------------------------------------------------
      1          6           0        0.591364    0.475326    0.252424
      2          1           0        0.331807    1.329242   -0.390820
      3          1           0        0.822320    0.864790    1.254528
      4          6           0       -0.634496   -0.444084    0.286635
      5          1           0       -0.915764   -0.724540    1.307627
      6          1           0       -0.396088   -1.351444   -0.279795
      7          9           0       -1.717952    0.177888   -0.300039
      8          8           0        1.676730   -0.273064   -0.272745
      9          1           0        2.464248    0.278020   -0.243584
 ---------------------------------------------------------------------
 Rotational constants (GHZ):          25.3574205           4.0099956           3.8995989
 Standard basis: 6-31G(2df,p) (6D, 7F)
 There are   149 symmetry adapted cartesian basis functions of A   symmetry.
 There are   137 symmetry adapted basis functions of A   symmetry.
   137 basis functions,   211 primitive gaussians,   149 cartesian basis functions
    17 alpha electrons       17 beta electrons
       nuclear repulsion energy       128.0127051174 Hartrees.
 NAtoms=    9 NActive=    9 NUniq=    9 SFac= 1.00D+00 NAtFMM=   60 NAOKFM=F Big=F
 Integral buffers will be    131072 words long.
 Raffenetti 2 integral format.
 Two-electron integral symmetry is turned on.
 One-electron integrals computed using PRISM.
 NBasis=   137 RedAO= T EigKep=  1.18D-03  NBF=   137
 NBsUse=   137 1.00D-06 EigRej= -1.00D+00 NBFU=   137
 ExpMin= 1.61D-01 ExpMax= 7.00D+03 ExpMxC= 1.05D+03 IAcc=3 IRadAn=         5 AccDes= 0.00D+00
 Harris functional with IExCor=  402 and IRadAn=       5 diagonalized for initial guess.
 HarFok:  IExCor=  402 AccDes= 0.00D+00 IRadAn=         5 IDoV= 1 UseB2=F ITyADJ=14
 ICtDFT=  3500011 ScaDFX=  1.000000  1.000000  1.000000  1.000000
 FoFCou: FMM=F IPFlag=           0 FMFlag=      100000 FMFlg1=           0
         NFxFlg=           0 DoJE=T BraDBF=F KetDBF=T FulRan=T
         wScrn=  0.000000 ICntrl=       500 IOpCl=  0 I1Cent=   200000004 NGrid=           0
         NMat0=    1 NMatS0=      1 NMatT0=    0 NMatD0=    1 NMtDS0=    0 NMtDT0=    0
 Petite list used in FoFCou.
 Keep R1 ints in memory in canonical form, NReq=52495207.
 Requested convergence on RMS density matrix=1.00D-08 within 128 cycles.
 Requested convergence on MAX density matrix=1.00D-06.
 Requested convergence on             energy=1.00D-06.
 No special actions if energy rises.
 Integral accuracy reduced to 1.0D-05 until final iterations.
 Initial convergence to 1.0D-05 achieved.  Increase integral accuracy.
 SCF Done:  E(RB3LYP) =  -254.276997935     A.U. after   11 cycles
            NFock= 11  Conv=0.77D-08     -V/T= 2.0063
 DoSCS=F DFT=T ScalE2(SS,OS)=  1.000000  1.000000
 Range of M.O.s used for correlation:     1   137
 NBasis=   137 NAE=    17 NBE=    17 NFC=     0 NFV=     0
 NROrb=    137 NOA=    17 NOB=    17 NVA=   120 NVB=   120

 **** Warning!!: The largest alpha MO coefficient is  0.18587816D+02

 Symmetrizing basis deriv contribution to polar:
 IMax=3 JMax=2 DiffMx= 0.00D+00
 G2DrvN: will do    10 centers at a time, making    1 passes.
 Calling FoFCou, ICntrl=  3107 FMM=F I1Cent=   0 AccDes= 0.00D+00.
 End of G2Drv F.D. properties file   721 does not exist.
 End of G2Drv F.D. properties file   722 does not exist.
 End of G2Drv F.D. properties file   788 does not exist.
          IDoAtm=111111111
          Differentiating once with respect to electric field.
                with respect to dipole field.
          Differentiating once with respect to nuclear coordinates.
 Keep R1 ints in memory in canonical form, NReq=52475930.
          There are    30 degrees of freedom in the 1st order CPHF.  IDoFFX=6 NUNeed=     3.
     27 vectors produced by pass  0 Test12= 6.80D-15 3.33D-09 XBig12= 1.54D+01 1.31D+00.
 AX will form    27 AO Fock derivatives at one time.
     27 vectors produced by pass  1 Test12= 6.80D-15 3.33D-09 XBig12= 1.02D+00 2.73D-01.
     27 vectors produced by pass  2 Test12= 6.80D-15 3.33D-09 XBig12= 1.87D-02 2.86D-02.
     27 vectors produced by pass  3 Test12= 6.80D-15 3.33D-09 XBig12= 5.66D-05 1.49D-03.
     27 vectors produced by pass  4 Test12= 6.80D-15 3.33D-09 XBig12= 8.71D-08 6.10D-05.
     15 vectors produced by pass  5 Test12= 6.80D-15 3.33D-09 XBig12= 6.86D-11 1.45D-06.
      3 vectors produced by pass  6 Test12= 6.80D-15 3.33D-09 XBig12= 5.73D-14 4.70D-08.
 InvSVY:  IOpt=1 It=  1 EMax= 2.66D-15
 Solved reduced A of dimension   153 with    30 vectors.
 Isotropic polarizability for W=    0.000000       28.31 Bohr**3.
 End of Minotr F.D. properties file   721 does not exist.
 End of Minotr F.D. properties file   722 does not exist.
 End of Minotr F.D. properties file   788 does not exist.

 **********************************************************************

            Population analysis using the SCF Density.

 **********************************************************************

 Orbital symmetries:
       Occupied  (A) (A) (A) (A) (A) (A) (A) (A) (A) (A) (A) (A)
                 (A) (A) (A) (A) (A)
       Virtual   (A) (A) (A) (A) (A) (A) (A) (A) (A) (A) (A) (A)
                 (A) (A) (A) (A) (A) (A) (A) (A) (A) (A) (A) (A)
                 (A) (A) (A) (A) (A) (A) (A) (A) (A) (A) (A) (A)
                 (A) (A) (A) (A) (A) (A) (A) (A) (A) (A) (A) (A)
                 (A) (A) (A) (A) (A) (A) (A) (A) (A) (A) (A) (A)
                 (A) (A) (A) (A) (A) (A) (A) (A) (A) (A) (A) (A)
                 (A) (A) (A) (A) (A) (A) (A) (A) (A) (A) (A) (A)
                 (A) (A) (A) (A) (A) (A) (A) (A) (A) (A) (A) (A)
                 (A) (A) (A) (A) (A) (A) (A) (A) (A) (A) (A) (A)
                 (A) (A) (A) (A) (A) (A) (A) (A) (A) (A) (A) (A)
 The electronic state is 1-A.
 Alpha  occ. eigenvalues --  -24.66434 -19.14269 -10.25115 -10.23465  -1.17917
 Alpha  occ. eigenvalues --   -1.02363  -0.74520  -0.62121  -0.53001  -0.49761
 Alpha  occ. eigenvalues --   -0.45746  -0.45331  -0.42330  -0.36424  -0.32908
 Alpha  occ. eigenvalues --   -0.32091  -0.27479
 Alpha virt. eigenvalues --    0.06639   0.10119   0.13716   0.14677   0.15977
 Alpha virt. eigenvalues --    0.19824   0.22470   0.24707   0.42460   0.46986
 Alpha virt. eigenvalues --    0.48645   0.50797   0.55543   0.63697   0.67775
 Alpha virt. eigenvalues --    0.69579   0.70586   0.71695   0.74087   0.77440
 Alpha virt. eigenvalues --    0.79391   0.82328   0.86340   0.89658   0.91326
 Alpha virt. eigenvalues --    0.94706   0.97127   1.00551   1.02591   1.06590
 Alpha virt. eigenvalues --    1.09428   1.10304   1.26854   1.28024   1.32189
 Alpha virt. eigenvalues --    1.38121   1.41700   1.42815   1.46185   1.52613
 Alpha virt. eigenvalues --    1.59415   1.63685   1.64229   1.69914   1.78079
 Alpha virt. eigenvalues --    1.90107   1.98971   2.08290   2.09926   2.20640
 Alpha virt. eigenvalues --    2.26022   2.39944   2.42019   2.47563   2.53225
 Alpha virt. eigenvalues --    2.59083   2.60798   2.64217   2.78465   2.82017
 Alpha virt. eigenvalues --    2.88700   2.92302   2.96160   2.99961   3.05830
 Alpha virt. eigenvalues --    3.16239   3.27513   3.34650   3.35480   3.38408
 Alpha virt. eigenvalues --    3.39661   3.47108   3.52160   3.57875   3.78066
 Alpha virt. eigenvalues --    3.82374   3.87014   3.92992   4.13517   4.19005
 Alpha virt. eigenvalues --    4.20431   4.26203   4.32800   4.38257   4.42205
 Alpha virt. eigenvalues --    4.42851   4.47683   4.49648   4.55704   4.57457
 Alpha virt. eigenvalues --    4.62700   4.66281   4.67701   4.71011   4.75458
 Alpha virt. eigenvalues --    4.78450   4.81620   4.82443   4.98572   5.22105
 Alpha virt. eigenvalues --    5.30959   5.40358   5.46383   5.55289   5.85811
 Alpha virt. eigenvalues --    5.91942   5.99100   6.04330   6.67041   6.67833
 Alpha virt. eigenvalues --    6.79187   6.79980   7.03787   7.25510   7.31241
 Alpha virt. eigenvalues --    7.32791   9.55112  10.88837  11.93865  13.14373
          Condensed to atoms (all electrons):
               1          2          3          4          5          6
     1  C    4.873008   0.357037   0.349818   0.357667  -0.038214  -0.051658
     2  H    0.357037   0.646995  -0.052128  -0.044130   0.005872   0.002386
     3  H    0.349818  -0.052128   0.666388  -0.024856  -0.006224   0.006103
     4  C    0.357667  -0.044130  -0.024856   4.693219   0.351304   0.354755
     5  H   -0.038214   0.005872  -0.006224   0.351304   0.653134  -0.047273
     6  H   -0.051658   0.002386   0.006103   0.354755  -0.047273   0.626689
     7  F   -0.040055   0.008020   0.001635   0.381896  -0.023073  -0.021858
     8  O    0.329816  -0.027658  -0.029882  -0.030671   0.002102   0.009754
     9  H   -0.046910  -0.003602  -0.004305   0.006124  -0.000374  -0.000149
               7          8          9
     1  C   -0.040055   0.329816  -0.046910
     2  H    0.008020  -0.027658  -0.003602
     3  H    0.001635  -0.029882  -0.004305
     4  C    0.381896  -0.030671   0.006124
     5  H   -0.023073   0.002102  -0.000374
     6  H   -0.021858   0.009754  -0.000149
     7  F    8.853459   0.000359  -0.000052
     8  O    0.000359   7.861258   0.303689
     9  H   -0.000052   0.303689   0.455320
 Mulliken charges:
               1
     1  C   -0.090508
     2  H    0.107208
     3  H    0.093450
     4  C   -0.045307
     5  H    0.102743
     6  H    0.121252
     7  F   -0.160330
     8  O   -0.418768
     9  H    0.290260
 Sum of Mulliken charges =  -0.00000
 Mulliken charges with hydrogens summed into heavy atoms:
               1
     1  C    0.110150
     4  C    0.178688
     7  F   -0.160330
     8  O   -0.128508
 APT charges:
               1
     1  C    0.444243
     2  H   -0.063663
     3  H   -0.080819
     4  C    0.551023
     5  H   -0.054123
     6  H   -0.029020
     7  F   -0.455253
     8  O   -0.552934
     9  H    0.240547
 Sum of APT charges =   0.00000
 APT charges with hydrogens summed into heavy atoms:
               1
     1  C    0.299761
     4  C    0.467880
     7  F   -0.455253
     8  O   -0.312388
 Electronic spatial extent (au):  <R**2>=            321.8724
 Charge=             -0.0000 electrons
 Dipole moment (field-independent basis, Debye):
    X=              1.5820    Y=              0.7528    Z=              1.0811  Tot=              2.0587
 Quadrupole moment (field-independent basis, Debye-Ang):
   XX=            -23.2759   YY=            -23.0028   ZZ=            -23.3364
   XY=              3.5925   XZ=             -0.5628   YZ=             -0.2944
 Traceless Quadrupole moment (field-independent basis, Debye-Ang):
   XX=             -0.0708   YY=              0.2022   ZZ=             -0.1314
   XY=              3.5925   XZ=             -0.5628   YZ=             -0.2944
 Octapole moment (field-independent basis, Debye-Ang**2):
  XXX=             13.5638  YYY=              0.3088  ZZZ=             -2.1303  XYY=             -2.3193
  XXY=              5.0915  XXZ=             -0.2449  XZZ=             -2.5627  YZZ=              0.2558
  YYZ=             -1.5482  XYZ=             -0.4246
 Hexadecapole moment (field-independent basis, Debye-Ang**3):
 XXXX=           -206.7904 YYYY=            -57.4927 ZZZZ=            -43.8094 XXXY=              9.9407
 XXXZ=             -3.3707 YYYX=             -2.8182 YYYZ=             -0.2858 ZZZX=              2.0526
 ZZZY=             -0.5533 XXYY=            -50.2442 XXZZ=            -48.1438 YYZZ=            -16.6329
 XXYZ=             -1.2415 YYXZ=              0.6238 ZZXY=             -0.2097
 N-N= 1.280127051174D+02 E-N=-8.557511306040D+02  KE= 2.526729159795D+02
  Exact polarizability:      31.608       0.887      27.325      -0.773       0.234      26.007
 Approx polarizability:      39.772      -0.739      37.328      -0.254       0.485      35.504
 Calling FoFJK, ICntrl=    100127 FMM=F ISym2X=0 I1Cent= 0 IOpClX= 0 NMat=1 NMatS=1 NMatT=0.
 Full mass-weighted force constant matrix:
 Low frequencies --- -129.3767  -11.4433   -0.0002    0.0008    0.0011    0.2356
 Low frequencies ---   20.1035  261.6514  381.1199
 ******    1 imaginary frequencies (negative Signs) ****** 
 Diagonal vibrational polarizability:
        8.3414302       6.4235723      45.1713594
 Harmonic frequencies (cm**-1), IR intensities (KM/Mole), Raman scattering
 activities (A**4/AMU), depolarization ratios for plane and unpolarized
 incident light, reduced masses (AMU), force constants (mDyne/A),
 and normal coordinates:
                      1                      2                      3
                      A                      A                      A
 Frequencies --   -129.3764               261.6494               381.1010
 Red. masses --      2.8320                 1.1116                 2.8743
 Frc consts  --      0.0279                 0.0448                 0.2460
 IR Inten    --      3.2616               114.1853                17.2576
  Atom  AN      X      Y      Z        X      Y      Z        X      Y      Z
     1   6    -0.03   0.03  -0.18     0.01   0.03  -0.01     0.10   0.18   0.10
     2   1     0.02  -0.14  -0.43     0.02   0.06   0.03     0.31   0.32   0.20
     3   1    -0.22   0.29  -0.24     0.05  -0.02  -0.01     0.17  -0.04   0.17
     4   6     0.04  -0.05  -0.18     0.01   0.03   0.01     0.11   0.14  -0.11
     5   1     0.23  -0.32  -0.20     0.03   0.05   0.02     0.20  -0.13  -0.16
     6   1    -0.01   0.11  -0.44     0.02   0.01   0.04     0.34   0.31  -0.28
     7   9    -0.08   0.04   0.15    -0.01  -0.03   0.00    -0.08  -0.11   0.00
     8   8     0.09  -0.03   0.16    -0.02   0.01  -0.06    -0.13  -0.12   0.03
     9   1     0.08  -0.03   0.26     0.22  -0.38   0.89    -0.01  -0.26  -0.34
                      4                      5                      6
                      A                      A                      A
 Frequencies --    441.1041               843.5702              1003.5683
 Red. masses --      5.0751                 1.4462                 2.6683
 Frc consts  --      0.5818                 0.6063                 1.5834
 IR Inten    --      1.8426                 6.9217                34.4511
  Atom  AN      X      Y      Z        X      Y      Z        X      Y      Z
     1   6    -0.18   0.10  -0.02    -0.04  -0.03  -0.10    -0.16  -0.19   0.01
     2   1    -0.36  -0.11  -0.23     0.20   0.29   0.24    -0.16  -0.24  -0.05
     3   1    -0.16   0.37  -0.13    -0.23  -0.48   0.13    -0.08  -0.11  -0.05
     4   6     0.13  -0.14   0.02     0.04   0.02  -0.10     0.09   0.27   0.02
     5   1     0.11  -0.38  -0.06     0.24   0.49   0.08     0.12  -0.05  -0.07
     6   1     0.27   0.03  -0.19    -0.19  -0.26   0.25     0.35   0.44  -0.15
     7   9     0.31   0.05   0.02     0.05  -0.02   0.05     0.03  -0.04   0.01
     8   8    -0.31  -0.02   0.02    -0.05   0.02   0.05     0.03  -0.04  -0.03
     9   1    -0.17  -0.23   0.05    -0.08   0.06   0.02    -0.33   0.47   0.25
                      7                      8                      9
                      A                      A                      A
 Frequencies --   1051.5743              1107.9091              1141.2477
 Red. masses --      4.2985                 3.9965                 1.9438
 Frc consts  --      2.8006                 2.8903                 1.4916
 IR Inten    --    112.5920                15.5601                12.8784
  Atom  AN      X      Y      Z        X      Y      Z        X      Y      Z
     1   6     0.21  -0.22   0.05    -0.24   0.14   0.06    -0.03   0.01   0.18
     2   1    -0.26  -0.53  -0.20    -0.41   0.18   0.22    -0.14  -0.33  -0.23
     3   1     0.15   0.27  -0.12    -0.30  -0.13   0.16    -0.31   0.48   0.06
     4   6     0.28  -0.04  -0.02     0.26  -0.13   0.06    -0.03   0.05  -0.18
     5   1     0.26   0.31   0.05     0.28   0.20   0.14    -0.13   0.47  -0.08
     6   1    -0.02  -0.20   0.15     0.33  -0.22   0.26    -0.15  -0.21   0.19
     7   9    -0.16   0.07  -0.06    -0.13   0.11  -0.06     0.04  -0.03   0.06
     8   8    -0.18   0.13   0.06     0.13  -0.13  -0.06     0.04  -0.02  -0.06
     9   1    -0.08  -0.04   0.03     0.11  -0.08  -0.05     0.15  -0.17  -0.09
                     10                     11                     12
                      A                      A                      A
 Frequencies --   1249.4781              1261.3004              1279.8283
 Red. masses --      1.1224                 1.1477                 1.0775
 Frc consts  --      1.0324                 1.0758                 1.0398
 IR Inten    --     20.7104                26.3355                16.7025
  Atom  AN      X      Y      Z        X      Y      Z        X      Y      Z
     1   6     0.00   0.02   0.05    -0.00   0.04   0.00     0.01  -0.03  -0.04
     2   1     0.75   0.00  -0.26    -0.19   0.07   0.10     0.16  -0.01  -0.06
     3   1    -0.19   0.17   0.05     0.67   0.05  -0.16    -0.24  -0.12   0.04
     4   6     0.01  -0.06   0.02    -0.00  -0.04  -0.08     0.01  -0.01  -0.00
     5   1     0.09  -0.03   0.05    -0.27   0.18  -0.09    -0.57   0.02  -0.17
     6   1     0.05  -0.08   0.06     0.18  -0.15   0.17     0.66  -0.00   0.24
     7   9    -0.01   0.02  -0.01    -0.00   0.01   0.03    -0.01   0.02   0.03
     8   8    -0.02  -0.02  -0.04    -0.00  -0.04   0.01    -0.01   0.03   0.01
     9   1    -0.30   0.38   0.21    -0.29   0.37   0.21     0.12  -0.16  -0.09
                     13                     14                     15
                      A                      A                      A
 Frequencies --   1400.9676              1467.0411              1505.8186
 Red. masses --      1.2598                 1.4438                 1.0841
 Frc consts  --      1.4568                 1.8308                 1.4484
 IR Inten    --      7.6829                 3.8397                 0.4575
  Atom  AN      X      Y      Z        X      Y      Z        X      Y      Z
     1   6    -0.06  -0.05   0.03     0.15   0.06  -0.01    -0.02   0.03   0.01
     2   1     0.19  -0.01  -0.03    -0.49  -0.14  -0.02     0.07  -0.18  -0.28
     3   1     0.34   0.08  -0.12    -0.45  -0.14   0.21     0.13  -0.31   0.09
     4   6    -0.11  -0.03  -0.03    -0.10  -0.03  -0.01     0.02  -0.06   0.03
     5   1     0.59   0.17   0.22     0.30   0.13   0.15    -0.23   0.56   0.11
     6   1     0.52   0.09   0.04     0.38   0.11  -0.03    -0.04   0.30  -0.53
     7   9     0.00   0.02  -0.01     0.01   0.01  -0.00     0.00  -0.01   0.00
     8   8     0.01   0.04   0.01    -0.01  -0.04  -0.01    -0.00   0.01   0.00
     9   1     0.18  -0.21  -0.12    -0.23   0.28   0.16     0.02  -0.03  -0.01
                     16                     17                     18
                      A                      A                      A
 Frequencies --   1521.0775              2984.9431              3018.7686
 Red. masses --      1.0837                 1.0554                 1.1017
 Frc consts  --      1.4772                 5.5403                 5.9152
 IR Inten    --      6.6368                46.0323                27.3477
  Atom  AN      X      Y      Z        X      Y      Z        X      Y      Z
     1   6     0.02  -0.06  -0.03    -0.00  -0.06  -0.02    -0.02   0.03  -0.08
     2   1     0.02   0.36   0.50    -0.15   0.50  -0.41     0.15  -0.55   0.42
     3   1    -0.22   0.54  -0.18     0.16   0.24   0.68     0.14   0.22   0.56
     4   6     0.00  -0.04   0.02    -0.00   0.00   0.01    -0.01  -0.01   0.02
     5   1    -0.12   0.31   0.07     0.01   0.01  -0.05     0.08   0.07  -0.29
     6   1     0.05   0.18  -0.30     0.01  -0.02  -0.01    -0.03   0.11   0.07
     7   9     0.00  -0.00   0.00    -0.00   0.00  -0.00     0.00  -0.00   0.00
     8   8     0.00  -0.01  -0.00     0.00  -0.00  -0.00     0.00   0.00   0.00
     9   1    -0.03   0.04   0.02     0.00  -0.01  -0.00    -0.00  -0.00   0.00
                     19                     20                     21
                      A                      A                      A
 Frequencies --   3037.7585              3088.0922              3831.7758
 Red. masses --      1.0607                 1.1096                 1.0663
 Frc consts  --      5.7669                 6.2345                 9.2242
 IR Inten    --     45.0709                42.1686                22.8801
  Atom  AN      X      Y      Z        X      Y      Z        X      Y      Z
     1   6    -0.01   0.01  -0.03    -0.00  -0.00  -0.01    -0.00  -0.00  -0.00
     2   1     0.04  -0.17   0.12     0.01  -0.04   0.03     0.00  -0.00  -0.00
     3   1     0.05   0.08   0.19     0.03   0.04   0.12     0.00  -0.00   0.00
     4   6     0.01   0.06  -0.02     0.03  -0.03  -0.08     0.00  -0.00  -0.00
     5   1    -0.17  -0.15   0.62    -0.18  -0.17   0.63    -0.00   0.00   0.00
     6   1     0.15  -0.56  -0.37    -0.14   0.60   0.37    -0.00   0.00   0.00
     7   9    -0.00   0.00  -0.00    -0.00   0.00   0.00     0.00   0.00   0.00
     8   8     0.00  -0.00   0.00     0.00   0.00   0.00    -0.05  -0.03  -0.00
     9   1     0.00  -0.00  -0.00    -0.00  -0.00   0.00     0.82   0.56   0.03

 -------------------
 - Thermochemistry -
 -------------------
 Temperature   298.150 Kelvin.  Pressure   1.00000 Atm.
 Atom     1 has atomic number  6 and mass  12.00000
 Atom     2 has atomic number  1 and mass   1.00783
 Atom     3 has atomic number  1 and mass   1.00783
 Atom     4 has atomic number  6 and mass  12.00000
 Atom     5 has atomic number  1 and mass   1.00783
 Atom     6 has atomic number  1 and mass   1.00783
 Atom     7 has atomic number  9 and mass  18.99840
 Atom     8 has atomic number  8 and mass  15.99491
 Atom     9 has atomic number  1 and mass   1.00783
 Molecular mass:    64.03244 amu.
 Principal axes and moments of inertia in atomic units:
                           1         2         3
     Eigenvalues --    71.17211 450.06064 462.80175
           X            0.99945   0.03124  -0.01112
           Y           -0.03138   0.99942  -0.01306
           Z            0.01070   0.01340   0.99985
 This molecule is an asymmetric top.
 Rotational symmetry number  1.
 Rotational temperatures (Kelvin)      1.21696     0.19245     0.18715
 Rotational constants (GHZ):          25.35742     4.01000     3.89960
    1 imaginary frequencies ignored.
 Zero-point vibrational energy     190676.2 (Joules/Mol)
                                   45.57271 (Kcal/Mol)
 Warning -- explicit consideration of   3 degrees of freedom as
           vibrations may cause significant error
 Vibrational temperatures:    376.46   548.32   634.65  1213.71  1443.91
          (Kelvin)           1512.98  1594.03  1642.00  1797.72  1814.73
                             1841.39  2015.68  2110.74  2166.54  2188.49
                             4294.67  4343.33  4370.66  4443.08  5513.07
 
 Zero-point correction=                           0.072625 (Hartree/Particle)
 Thermal correction to Energy=                    0.076767
 Thermal correction to Enthalpy=                  0.077711
 Thermal correction to Gibbs Free Energy=         0.046014
 Sum of electronic and zero-point Energies=           -254.204373
 Sum of electronic and thermal Energies=              -254.200231
 Sum of electronic and thermal Enthalpies=            -254.199287
 Sum of electronic and thermal Free Energies=         -254.230984
 
                     E (Thermal)             CV                S
                      KCal/Mol        Cal/Mol-Kelvin    Cal/Mol-Kelvin
 Total                   48.172             13.229             66.712
 Electronic               0.000              0.000              0.000
 Translational            0.889              2.981             38.389
 Rotational               0.889              2.981             24.209
 Vibrational             46.395              7.267              4.114
 Vibration     1          0.669              1.743              1.651
 Vibration     2          0.751              1.510              1.035
 Vibration     3          0.801              1.381              0.823
                       Q            Log10(Q)             Ln(Q)
 Total Bot       0.683696D-21        -21.165137        -48.734529
 Total V=0       0.173737D+13         12.239893         28.183395
 Vib (Bot)       0.778889D-33        -33.108524        -76.235195
 Vib (Bot)    1  0.741731D+00         -0.129753         -0.298768
 Vib (Bot)    2  0.474063D+00         -0.324164         -0.746414
 Vib (Bot)    3  0.391560D+00         -0.407201         -0.937616
 Vib (V=0)       0.197927D+01          0.296505          0.682729
 Vib (V=0)    1  0.139452D+01          0.144425          0.332550
 Vib (V=0)    2  0.118901D+01          0.075186          0.173122
 Vib (V=0)    3  0.113507D+01          0.055024          0.126698
 Electronic      0.100000D+01          0.000000          0.000000
 Translational   0.201397D+08          7.304054         16.818206
 Rotational      0.435846D+05          4.639334         10.682460
 ***** Axes restored to original set *****
 -------------------------------------------------------------------
 Center     Atomic                   Forces (Hartrees/Bohr)
 Number     Number              X              Y              Z
 -------------------------------------------------------------------
      1        6           0.000462568    0.000541797    0.001043388
      2        1           0.000002197    0.000021791    0.000000038
      3        1           0.000015176    0.000005784   -0.000000741
      4        6          -0.000428492   -0.000615953    0.001160297
      5        1          -0.000018472   -0.000020943   -0.000013742
      6        1          -0.000005109   -0.000011757   -0.000001779
      7        9           0.000279415    0.000430126   -0.001106557
      8        8          -0.000303040   -0.000350224   -0.001090115
      9        1          -0.000004243   -0.000000621    0.000009211
 -------------------------------------------------------------------
 Cartesian Forces:  Max     0.001160297 RMS     0.000486782

 GradGradGradGradGradGradGradGradGradGradGradGradGradGradGradGradGradGrad
 Berny optimization.
 Search for a local minimum.
 Step number   1 out of a maximum of    2
 All quantities printed in internal units (Hartrees-Bohrs-Radians)
 Second derivative matrix not updated -- analytic derivatives used.
 ITU=  0
     Eigenvalues ---   -0.00226   0.00412   0.02015   0.03347   0.05506
     Eigenvalues ---    0.06810   0.07583   0.08196   0.11602   0.11954
     Eigenvalues ---    0.15036   0.16045   0.20849   0.30401   0.46762
     Eigenvalues ---    0.64800   0.71673   0.76836   0.81588   0.83391
     Eigenvalues ---    1.03991
 Eigenvalue     1 is  -2.26D-03 should be greater than     0.000000 Eigenvector:
                          Z6        Z2        Y5        Y3        Z7
   1                    0.41048   0.40367  -0.32567   0.29711  -0.29227
                          X5        Z8        Z9        X3        Z3
   1                   -0.25483  -0.23600  -0.21237   0.20965   0.20054
 Quadratic step=4.669D-01 exceeds max=3.000D-01 adjusted using Lamda=-1.273D-03.
 Angle between NR and scaled steps=   2.01 degrees.
 Angle between quadratic step and forces=  62.57 degrees.
 Linear search not attempted -- first point.
 B after Tr=     0.002278    0.003353   -0.026583
         Rot=    0.999997    0.000378   -0.001546   -0.002055 Ang=   0.30 deg.
 Variable       Old X    -DE/DX   Delta X   Delta X   Delta X     New X
                                 (Linear)    (Quad)   (Total)
    X1       -1.11752   0.00046   0.00000   0.00716   0.00439  -1.11313
    Y1        0.89824   0.00054   0.00000   0.00575   0.00420   0.90243
    Z1       -0.47701   0.00104   0.00000   0.04148   0.01766  -0.45935
    X2       -0.62702   0.00000   0.00000  -0.01911  -0.02431  -0.65134
    Y2        2.51190   0.00002   0.00000  -0.04609  -0.04476   2.46714
    Z2        0.73854   0.00000   0.00000   0.11993   0.09349   0.83203
    X3       -1.55396   0.00002   0.00000   0.07148   0.05956  -1.49440
    Y3        1.63422   0.00001   0.00000   0.08371   0.07919   1.71341
    Z3       -2.37071  -0.00000   0.00000   0.05603   0.03276  -2.33795
    X4        1.19902  -0.00043   0.00000  -0.00761  -0.00340   1.19563
    Y4       -0.83920  -0.00062   0.00000  -0.01224  -0.00437  -0.84356
    Z4       -0.54166   0.00116   0.00000   0.03958   0.00995  -0.53171
    X5        1.73054  -0.00002   0.00000  -0.07508  -0.07431   1.65623
    Y5       -1.36918  -0.00002   0.00000  -0.09492  -0.08660  -1.45579
    Z5       -2.47106  -0.00001   0.00000   0.04318   0.01259  -2.45847
    X6        0.74850  -0.00001   0.00000   0.02073   0.03537   0.78387
    Y6       -2.55386  -0.00001   0.00000   0.03397   0.04100  -2.51286
    Z6        0.52874  -0.00000   0.00000   0.12503   0.09795   0.62669
    X7        3.24646   0.00028   0.00000   0.03525   0.03744   3.28390
    Y7        0.33616   0.00043   0.00000   0.03440   0.05160   0.38776
    Z7        0.56699  -0.00111   0.00000  -0.09011  -0.12712   0.43987
    X8       -3.16856  -0.00030   0.00000  -0.03312  -0.02726  -3.19582
    Y8       -0.51602  -0.00035   0.00000  -0.02662  -0.03610  -0.55211
    Z8        0.51541  -0.00109   0.00000  -0.08967  -0.10595   0.40947
    X9       -4.65675  -0.00000   0.00000  -0.00898  -0.00748  -4.66424
    Y9        0.52538  -0.00000   0.00000   0.01132  -0.00416   0.52122
    Z9        0.46031   0.00001   0.00000  -0.01877  -0.03133   0.42898
         Item               Value     Threshold  Converged?
 Maximum Force            0.001160     0.000450     NO 
 RMS     Force            0.000487     0.000300     NO 
 Maximum Displacement     0.127122     0.001800     NO 
 RMS     Displacement     0.055432     0.001200     NO 
 Predicted change in Energy=-4.299757D-04
 GradGradGradGradGradGradGradGradGradGradGradGradGradGradGradGradGradGrad


 ----------------------------------------------------------------------

 Electric dipole moment (input orientation):
 (Debye = 10**-18 statcoulomb cm , SI units = C m)
                  (au)            (Debye)         (10**-30 SI)
   Tot        0.809966D+00      0.205873D+01      0.686718D+01
   x         -0.622420D+00     -0.158203D+01     -0.527709D+01
   y          0.296190D+00      0.752840D+00      0.251120D+01
   z         -0.425335D+00     -0.108109D+01     -0.360614D+01

 Dipole polarizability, Alpha (input orientation).
 (esu units = cm**3 , SI units = C**2 m**2 J**-1)
 Alpha(0;0):
               (au)            (10**-24 esu)      (10**-40 SI)
   iso        0.283131D+02      0.419558D+01      0.466821D+01
   aniso      0.548134D+01      0.812251D+00      0.903751D+00
   xx         0.316080D+02      0.468382D+01      0.521145D+01
   yx        -0.886720D+00     -0.131398D+00     -0.146200D+00
   yy         0.273248D+02      0.404912D+01      0.450525D+01
   zx        -0.773344D+00     -0.114598D+00     -0.127507D+00
   zy        -0.233510D+00     -0.346026D-01     -0.385005D-01
   zz         0.260067D+02      0.385379D+01      0.428792D+01

 ----------------------------------------------------------------------

 Dipole orientation:
     6         -0.15275795         -0.43913793          1.43771812
     1         -0.48895385         -2.44619992          1.01256773
     1          1.17061208         -0.33767824          3.03667258
     6          0.99638645          0.74276845         -0.94383049
     1          2.70710158          1.83389563         -0.53290665
     1         -0.41817963          1.99867390         -1.78673868
     9          1.61568523         -1.11219347         -2.66956255
     8         -2.43286390          0.86611105          1.97553133
     1         -3.11061195          0.21037866          3.52889483

 Electric dipole moment (dipole orientation):
 (Debye = 10**-18 statcoulomb cm , SI units = C m)
                  (au)            (Debye)         (10**-30 SI)
   Tot        0.809966D+00      0.205873D+01      0.686718D+01
   x          0.000000D+00      0.000000D+00      0.000000D+00
   y          0.000000D+00      0.000000D+00      0.000000D+00
   z          0.809966D+00      0.205873D+01      0.686718D+01

 Dipole polarizability, Alpha (dipole orientation).
 (esu units = cm**3 , SI units = C**2 m**2 J**-1)
 Alpha(0;0):
               (au)            (10**-24 esu)      (10**-40 SI)
   iso        0.283131D+02      0.419558D+01      0.466821D+01
   aniso      0.548134D+01      0.812251D+00      0.903751D+00
   xx         0.287491D+02      0.426018D+01      0.474009D+01
   yx        -0.412345D+00     -0.611033D-01     -0.679866D-01
   yy         0.267358D+02      0.396184D+01      0.440814D+01
   zx        -0.274165D+01     -0.406271D+00     -0.452037D+00
   zy        -0.581368D+00     -0.861499D-01     -0.958547D-01
   zz         0.294545D+02      0.436471D+01      0.485639D+01

 ----------------------------------------------------------------------
 Unable to Open any file for archive entry.
 1\1\GINC-COMPUTE-2-3\Freq\RB3LYP\6-31G(2df,p)\C2H5F1O1\JINGDAN2\05-Dec
 -2024\0\\# freq b3lyp/6-31g(2df,p)\\energy: -15.614184499692 gnorm: 0.
 000439253721 xtb: 6.6.1 (8d0f1dd)\\0,1\C,-0.591364,0.475326,-0.252424\
 H,-0.331807,1.329242,0.39082\H,-0.82232,0.86479,-1.254528\C,0.634496,-
 0.444084,-0.286635\H,0.915764,-0.72454,-1.307627\H,0.396088,-1.351444,
 0.279795\F,1.717952,0.177888,0.300039\O,-1.67673,-0.273064,0.272745\H,
 -2.464248,0.27802,0.243584\\Version=ES64L-G16RevC.01\State=1-A\HF=-254
 .2769979\RMSD=7.746e-09\RMSF=4.868e-04\ZeroPoint=0.0726247\Thermal=0.0
 767672\ETot=-254.2002307\HTot=-254.1992866\GTot=-254.2309835\Dipole=-0
 .6224197,0.29619,-0.4253347\DipoleDeriv=0.5855576,0.1958607,-0.0965908
 ,0.2803334,0.3180274,-0.0681926,-0.1002102,-0.0812481,0.4291434,-0.039
 9994,-0.0495967,-0.0160203,-0.0680376,-0.103938,-0.0615363,-0.0125145,
 -0.1002389,-0.0470513,-0.0528922,0.0315694,-0.0299911,-0.0152943,-0.01
 59975,0.0701299,-0.0177577,0.101345,-0.1735683,0.74806,0.1276832,0.139
 3939,0.1980194,0.4189064,0.091844,0.1582655,0.0926405,0.4861025,-0.040
 115,0.0346048,0.0488679,0.003339,0.0173959,-0.0317197,0.0397471,-0.072
 0123,-0.1396486,0.0037038,-0.0303966,-0.0009637,-0.0353415,-0.0752143,
 0.0494001,0.0004173,0.0872578,-0.01555,-0.6940762,-0.1409072,-0.179847
 6,-0.1987661,-0.3404885,-0.1078185,-0.2109276,-0.0976697,-0.3311945,-0
 .7188527,-0.2374677,0.1321399,-0.2565132,-0.4091136,0.0249351,0.143839
 8,0.0325426,-0.5308366,0.2086141,0.0686501,0.0030119,0.0922608,0.19042
 22,0.0329581,-0.0008598,0.0373832,0.3226034\Polar=31.6079544,-0.886719
 8,27.3248096,-0.7733437,-0.2335096,26.0066848\Quadrupole=-0.0526709,0.
 1503298,-0.097659,-2.6709314,-0.41841,0.2188503\PG=C01 [X(C2H5F1O1)]\N
 Imag=1\\0.48046837,-0.00276005,0.53175212,0.04394741,0.00842920,0.5660
 2960,-0.05695053,-0.03261809,-0.03086120,0.07006254,-0.03405965,-0.188
 11996,-0.11168422,0.04837299,0.21131520,-0.03103143,-0.11607278,-0.147
 46823,0.03200996,0.12247674,0.15005778,-0.06563456,0.02100755,-0.05824
 550,0.00143975,0.00355353,-0.00551430,0.07333684,0.01888066,-0.0765700
 0,0.06633221,-0.00549717,0.00944194,-0.02253604,-0.01718770,0.08374589
 ,-0.05773545,0.07013116,-0.25289749,-0.00712097,0.00619443,-0.01813725
 ,0.05260735,-0.08397300,0.27540251,-0.12615416,0.06074040,0.00741658,0
 .00307627,-0.00227028,-0.00156824,-0.00316887,0.00498373,0.00213085,0.
 47647580,0.06419348,-0.12952896,-0.00249451,0.01980145,-0.01853301,-0.
 00088692,0.00955968,-0.00645321,-0.00383024,0.01900265,0.54006997,0.00
 093745,0.00089996,-0.08147796,0.01497428,-0.01708357,-0.00142141,-0.02
 245184,0.01757678,0.00177785,-0.04968168,-0.01894149,0.59060031,-0.003
 36531,0.00746895,0.02208756,-0.00286216,0.00239818,0.00026472,0.000378
 44,-0.00051266,-0.00022439,-0.07203586,0.01766462,0.07671890,0.0810665
 6,0.00696244,-0.00328859,-0.01785753,0.00159579,-0.00201454,-0.0002560
 5,-0.00064699,0.00124066,0.00026669,0.01636449,-0.06612718,-0.04761931
 ,-0.01495022,0.06852544,-0.00180820,0.00393577,0.00122895,-0.00038566,
 0.00082815,0.00072960,0.00005748,-0.00027318,0.00170572,0.07092451,-0.
 05322849,-0.27081790,-0.06582635,0.06483485,0.29595188,0.00335237,0.02
 108987,-0.01222854,-0.00124816,0.00074292,0.00011231,-0.00268843,0.001
 72451,0.00042463,-0.05636441,-0.03396331,0.02506033,0.00162235,-0.0065
 4887,0.00686820,0.07142744,-0.00067872,-0.01847059,0.01547400,0.000540
 31,-0.00018690,-0.00022541,0.00248779,-0.00207429,-0.00096759,-0.03676
 658,-0.21893400,0.11099430,0.00326762,0.00830140,-0.00404268,0.0502551
 2,0.24261915,0.00131196,-0.00145790,0.00146058,-0.00009585,0.00024704,
 -0.00030946,0.00012201,0.00003787,0.00068401,0.02946808,0.11876110,-0.
 13342015,0.00528290,0.02455781,-0.01429824,-0.02602804,-0.12099284,0.1
 3209077,-0.03511431,-0.01880208,-0.01983467,0.00160683,-0.00272801,0.0
 0030950,-0.00358386,0.00247467,-0.00109485,-0.18403814,-0.07420751,-0.
 06323326,-0.00229597,-0.00515468,-0.01141395,-0.01770278,-0.01551473,-
 0.00973528,0.25040045,0.00814730,0.00913483,0.00449209,-0.00052079,0.0
 0418659,0.00145571,0.00023975,-0.00008078,0.00067725,-0.07207192,-0.11
 000020,-0.03988859,-0.01586643,-0.00604005,-0.01139855,-0.03322443,-0.
 01456224,-0.02038210,0.11033427,0.11653688,-0.00760893,-0.00306757,0.0
 0083801,0.00041254,0.00124007,0.00156539,0.00028159,0.00094600,0.00068
 821,-0.06554174,-0.04174923,-0.10512712,-0.03793874,-0.02302831,-0.014
 89041,0.00654420,0.00027814,0.01290989,0.10464451,0.06471863,0.1042961
 4,-0.16827397,-0.07798565,0.05013800,-0.01642852,-0.01679269,0.0066132
 4,-0.00247243,-0.00561060,0.01078163,-0.03449686,-0.01835395,0.0150029
 5,-0.00198203,0.00202220,0.00144670,0.00151607,-0.00261919,-0.00041792
 ,-0.00798468,0.00282046,-0.00071764,0.57809271,-0.03279483,-0.13396785
 ,0.03472690,-0.03085997,-0.01623995,0.01608893,-0.01860577,-0.00933997
 ,0.01063604,0.01128390,0.01234676,-0.00785792,0.00063349,-0.00108015,-
 0.00057080,0.00008276,0.00248859,-0.00034789,0.00447790,0.00024826,0.0
 0128166,-0.13795326,0.34933466,0.03485991,0.04600533,-0.08555672,-0.00
 828943,-0.00302877,0.01428079,0.03294553,0.02267778,-0.00980050,0.0051
 5757,-0.00039984,-0.00005421,-0.00033511,-0.00021807,0.00038745,-0.000
 81423,-0.00037078,0.00072511,-0.00018837,0.00076361,-0.00007513,-0.064
 63897,-0.08384996,0.09033333,-0.02832790,0.02185910,-0.00241965,0.0013
 0398,0.00078302,-0.00119577,0.00239312,0.00074455,0.00023120,-0.003293
 77,-0.00369711,0.00267287,-0.00052601,0.00035584,0.00013726,0.00008555
 ,-0.00097164,0.00009214,-0.00128754,0.00014180,-0.00007581,-0.34797029
 ,0.20373577,0.00130311,0.37762287,-0.02789063,0.00905899,0.00258187,-0
 .00081452,0.00015063,-0.00004417,-0.00040784,0.00008976,0.00086525,-0.
 00126638,-0.00284018,0.00191985,-0.00010356,0.00048301,-0.00008509,-0.
 00015858,0.00081887,-0.00042309,-0.00087983,0.00057671,-0.00061939,0.2
 5447268,-0.20379035,0.01842071,-0.22295134,0.19545257,0.01712728,-0.00
 880317,-0.00215674,-0.00064368,0.00081012,0.00070280,0.00019768,-0.000
 78841,0.00057695,0.00169405,0.00276961,-0.00005941,-0.00002949,-0.0006
 8009,0.00000295,0.00006114,-0.00014714,0.00015750,0.00054637,-0.000438
 04,-0.00020497,-0.01820800,0.02989306,-0.01024012,-0.00074535,-0.02261
 594,0.01122104\\-0.00046257,-0.00054180,-0.00104339,-0.00000220,-0.000
 02179,-0.00000004,-0.00001518,-0.00000578,0.00000074,0.00042849,0.0006
 1595,-0.00116030,0.00001847,0.00002094,0.00001374,0.00000511,0.0000117
 6,0.00000178,-0.00027942,-0.00043013,0.00110656,0.00030304,0.00035022,
 0.00109011,0.00000424,0.00000062,-0.00000921\\\@
 The archive entry for this job was punched.


 THE TEST OF A FIRST RATE INTELLIGENCE IS THE ABILITY TO HOLD TWO OPPOSED
 IDEAS IN THE MIND AT THE SAME TIME, AND STILL RETAIN THE ABILITY TO FUNCTION.
 ONE SHOULD, FOR EXAMPLE, BE ABLE TO SEE THAT THINGS ARE HOPELESS AND YET BE
 DETERMINED TO MAKE THEM OTHERWISE.

                                                       -- F. SCOTT FITZGERALD
 Job cpu time:       0 days  0 hours  6 minutes 32.7 seconds.
 Elapsed time:       0 days  0 hours  0 minutes 50.4 seconds.
 File lengths (MBytes):  RWF=     21 Int=      0 D2E=      0 Chk=      2 Scr=      1
 Normal termination of Gaussian 16 at Thu Dec  5 18:23:54 2024.
