 Entering Gaussian System, Link 0=g16
 Input=rotation_std34.gjf
 Output=rotation_std34.log
 Initial command:
 /share/apps/gaussian/g16/l1.exe "/scratch/jingdan2/247463/Gau-175390.inp" -scrdir="/scratch/jingdan2/247463/"
 Entering Link 1 = /share/apps/gaussian/g16/l1.exe PID=    175396.
  
 Copyright (c) 1988-2019, Gaussian, Inc.  All Rights Reserved.
  
 This is part of the Gaussian(R) 16 program.  It is based on
 the Gaussian(R) 09 system (copyright 2009, Gaussian, Inc.),
 the Gaussian(R) 03 system (copyright 2003, Gaussian, Inc.),
 the Gaussian(R) 98 system (copyright 1998, Gaussian, Inc.),
 the Gaussian(R) 94 system (copyright 1995, Gaussian, Inc.),
 the Gaussian 92(TM) system (copyright 1992, Gaussian, Inc.),
 the Gaussian 90(TM) system (copyright 1990, Gaussian, Inc.),
 the Gaussian 88(TM) system (copyright 1988, Gaussian, Inc.),
 the Gaussian 86(TM) system (copyright 1986, Carnegie Mellon
 University), and the Gaussian 82(TM) system (copyright 1983,
 Carnegie Mellon University). Gaussian is a federally registered
 trademark of Gaussian, Inc.
  
 This software contains proprietary and confidential information,
 including trade secrets, belonging to Gaussian, Inc.
  
 This software is provided under written license and may be
 used, copied, transmitted, or stored only in accord with that
 written license.
  
 The following legend is applicable only to US Government
 contracts under FAR:
  
                    RESTRICTED RIGHTS LEGEND
  
 Use, reproduction and disclosure by the US Government is
 subject to restrictions as set forth in subparagraphs (a)
 and (c) of the Commercial Computer Software - Restricted
 Rights clause in FAR 52.227-19.
  
 Gaussian, Inc.
 340 Quinnipiac St., Bldg. 40, Wallingford CT 06492
  
  
 ---------------------------------------------------------------
 Warning -- This program may not be used in any manner that
 competes with the business of Gaussian, Inc. or will provide
 assistance to any competitor of Gaussian, Inc.  The licensee
 of this program is prohibited from giving any competitor of
 Gaussian, Inc. access to this program.  By using this program,
 the user acknowledges that Gaussian, Inc. is engaged in the
 business of creating and licensing software in the field of
 computational chemistry and represents and warrants to the
 licensee that it is not a competitor of Gaussian, Inc. and that
 it will not use this program in any manner prohibited above.
 ---------------------------------------------------------------
  

 Cite this work as:
 Gaussian 16, Revision C.01,
 M. J. Frisch, G. W. Trucks, H. B. Schlegel, G. E. Scuseria, 
 M. A. Robb, J. R. Cheeseman, G. Scalmani, V. Barone, 
 G. A. Petersson, H. Nakatsuji, X. Li, M. Caricato, A. V. Marenich, 
 J. Bloino, B. G. Janesko, R. Gomperts, B. Mennucci, H. P. Hratchian, 
 J. V. Ortiz, A. F. Izmaylov, J. L. Sonnenberg, D. Williams-Young, 
 F. Ding, F. Lipparini, F. Egidi, J. Goings, B. Peng, A. Petrone, 
 T. Henderson, D. Ranasinghe, V. G. Zakrzewski, J. Gao, N. Rega, 
 G. Zheng, W. Liang, M. Hada, M. Ehara, K. Toyota, R. Fukuda, 
 J. Hasegawa, M. Ishida, T. Nakajima, Y. Honda, O. Kitao, H. Nakai, 
 T. Vreven, K. Throssell, J. A. Montgomery, Jr., J. E. Peralta, 
 F. Ogliaro, M. J. Bearpark, J. J. Heyd, E. N. Brothers, K. N. Kudin, 
 V. N. Staroverov, T. A. Keith, R. Kobayashi, J. Normand, 
 K. Raghavachari, A. P. Rendell, J. C. Burant, S. S. Iyengar, 
 J. Tomasi, M. Cossi, J. M. Millam, M. Klene, C. Adamo, R. Cammi, 
 J. W. Ochterski, R. L. Martin, K. Morokuma, O. Farkas, 
 J. B. Foresman, and D. J. Fox, Gaussian, Inc., Wallingford CT, 2019.
 
 ******************************************
 Gaussian 16:  ES64L-G16RevC.01  3-Jul-2019
                 5-Dec-2024 
 ******************************************
 %nprocshared=8
 Will use up to    8 processors via shared memory.
 %mem=8GB
 -------------------------
 # freq b3lyp/6-31g(2df,p)
 -------------------------
 1/10=4,30=1,38=1/1,3;
 2/12=2,17=6,18=5,40=1/2;
 3/5=1,6=6,7=104,11=2,25=1,30=1,71=2,74=-5,140=1/1,2,3;
 4//1;
 5/5=2,38=5,98=1/2;
 8/6=4,10=90,11=11/1;
 11/6=1,8=1,9=11,15=111,16=1/1,2,10;
 10/6=1/2;
 6/7=2,8=2,9=2,10=2,28=1/1;
 7/8=1,10=1,25=1/1,2,3,16;
 1/10=4,30=1/3;
 99//99;
 -------------------------------------------------------------------
 energy: -15.614184499692 gnorm: 0.000439253721 xtb: 6.6.1 (8d0f1dd)
 -------------------------------------------------------------------
 Symbolic Z-matrix:
 Charge =  0 Multiplicity = 1
 C                    -0.56895   0.49228   0.15534 
 H                    -0.67715   1.00378   1.12243 
 H                    -0.34508   1.25489  -0.6064 
 C                     0.60927  -0.47899   0.1751 
 H                     0.41325  -1.26865  -0.56011 
 H                     0.75329  -0.93976   1.1586 
 F                     1.76572   0.18426  -0.17802 
 O                    -1.723    -0.26133  -0.17833 
 H                    -2.49377   0.30231  -0.0684 
 

 GradGradGradGradGradGradGradGradGradGradGradGradGradGradGradGradGradGrad
 Berny optimization.
 Initialization pass.
 Trust Radius=3.00D-01 FncErr=1.00D-07 GrdErr=1.00D-07 EigMax=2.50D+02 EigMin=1.00D-04
 Number of steps in this run=      2 maximum allowed number of steps=      2.
 GradGradGradGradGradGradGradGradGradGradGradGradGradGradGradGradGradGrad

                          Input orientation:                          
 ---------------------------------------------------------------------
 Center     Atomic      Atomic             Coordinates (Angstroms)
 Number     Number       Type             X           Y           Z
 ---------------------------------------------------------------------
      1          6           0       -0.568950    0.492281    0.155336
      2          1           0       -0.677151    1.003778    1.122426
      3          1           0       -0.345080    1.254888   -0.606398
      4          6           0        0.609267   -0.478987    0.175103
      5          1           0        0.413253   -1.268646   -0.560110
      6          1           0        0.753293   -0.939757    1.158600
      7          9           0        1.765724    0.184257   -0.178016
      8          8           0       -1.722995   -0.261332   -0.178326
      9          1           0       -2.493771    0.302311   -0.068396
 ---------------------------------------------------------------------
                    Distance matrix (angstroms):
                    1          2          3          4          5
     1  C    0.000000
     2  H    1.099363   0.000000
     3  H    1.100875   1.778246   0.000000
     4  C    1.527072   2.179652   2.127873   0.000000
     5  H    2.139498   3.030482   2.635419   1.096595   0.000000
     6  H    2.192167   2.413464   3.022930   1.095591   1.782627
     7  F    2.378383   2.886244   2.405256   1.379122   2.021411
     8  O    1.418126   2.094337   2.093040   2.368909   2.392487
     9  H    1.947070   2.282591   2.411166   3.209137   3.340730
                    6          7          8          9
     6  H    0.000000
     7  F    2.018655   0.000000
     8  O    2.894760   3.517060   0.000000
     9  H    3.686689   4.262540   0.961183   0.000000
 Stoichiometry    C2H5FO
 Framework group  C1[X(C2H5FO)]
 Deg. of freedom    21
 Full point group                 C1      NOp   1
 Largest Abelian subgroup         C1      NOp   1
 Largest concise Abelian subgroup C1      NOp   1
                         Standard orientation:                         
 ---------------------------------------------------------------------
 Center     Atomic      Atomic             Coordinates (Angstroms)
 Number     Number       Type             X           Y           Z
 ---------------------------------------------------------------------
      1          6           0       -0.568950    0.492281    0.155336
      2          1           0       -0.677151    1.003778    1.122426
      3          1           0       -0.345080    1.254888   -0.606398
      4          6           0        0.609267   -0.478987    0.175103
      5          1           0        0.413253   -1.268646   -0.560110
      6          1           0        0.753293   -0.939757    1.158600
      7          9           0        1.765724    0.184257   -0.178016
      8          8           0       -1.722995   -0.261332   -0.178326
      9          1           0       -2.493771    0.302311   -0.068396
 ---------------------------------------------------------------------
 Rotational constants (GHZ):          28.7861525           3.9621493           3.7437163
 Standard basis: 6-31G(2df,p) (6D, 7F)
 There are   149 symmetry adapted cartesian basis functions of A   symmetry.
 There are   137 symmetry adapted basis functions of A   symmetry.
   137 basis functions,   211 primitive gaussians,   149 cartesian basis functions
    17 alpha electrons       17 beta electrons
       nuclear repulsion energy       128.0042539515 Hartrees.
 NAtoms=    9 NActive=    9 NUniq=    9 SFac= 1.00D+00 NAtFMM=   60 NAOKFM=F Big=F
 Integral buffers will be    131072 words long.
 Raffenetti 2 integral format.
 Two-electron integral symmetry is turned on.
 One-electron integrals computed using PRISM.
 NBasis=   137 RedAO= T EigKep=  1.22D-03  NBF=   137
 NBsUse=   137 1.00D-06 EigRej= -1.00D+00 NBFU=   137
 ExpMin= 1.61D-01 ExpMax= 7.00D+03 ExpMxC= 1.05D+03 IAcc=3 IRadAn=         5 AccDes= 0.00D+00
 Harris functional with IExCor=  402 and IRadAn=       5 diagonalized for initial guess.
 HarFok:  IExCor=  402 AccDes= 0.00D+00 IRadAn=         5 IDoV= 1 UseB2=F ITyADJ=14
 ICtDFT=  3500011 ScaDFX=  1.000000  1.000000  1.000000  1.000000
 FoFCou: FMM=F IPFlag=           0 FMFlag=      100000 FMFlg1=           0
         NFxFlg=           0 DoJE=T BraDBF=F KetDBF=T FulRan=T
         wScrn=  0.000000 ICntrl=       500 IOpCl=  0 I1Cent=   200000004 NGrid=           0
         NMat0=    1 NMatS0=      1 NMatT0=    0 NMatD0=    1 NMtDS0=    0 NMtDT0=    0
 Petite list used in FoFCou.
 Keep R1 ints in memory in canonical form, NReq=52495207.
 Requested convergence on RMS density matrix=1.00D-08 within 128 cycles.
 Requested convergence on MAX density matrix=1.00D-06.
 Requested convergence on             energy=1.00D-06.
 No special actions if energy rises.
 Integral accuracy reduced to 1.0D-05 until final iterations.
 Initial convergence to 1.0D-05 achieved.  Increase integral accuracy.
 SCF Done:  E(RB3LYP) =  -254.278873584     A.U. after   11 cycles
            NFock= 11  Conv=0.87D-08     -V/T= 2.0064
 DoSCS=F DFT=T ScalE2(SS,OS)=  1.000000  1.000000
 Range of M.O.s used for correlation:     1   137
 NBasis=   137 NAE=    17 NBE=    17 NFC=     0 NFV=     0
 NROrb=    137 NOA=    17 NOB=    17 NVA=   120 NVB=   120

 **** Warning!!: The largest alpha MO coefficient is  0.18608756D+02

 Symmetrizing basis deriv contribution to polar:
 IMax=3 JMax=2 DiffMx= 0.00D+00
 G2DrvN: will do    10 centers at a time, making    1 passes.
 Calling FoFCou, ICntrl=  3107 FMM=F I1Cent=   0 AccDes= 0.00D+00.
 End of G2Drv F.D. properties file   721 does not exist.
 End of G2Drv F.D. properties file   722 does not exist.
 End of G2Drv F.D. properties file   788 does not exist.
          IDoAtm=111111111
          Differentiating once with respect to electric field.
                with respect to dipole field.
          Differentiating once with respect to nuclear coordinates.
 Keep R1 ints in memory in canonical form, NReq=52475930.
          There are    30 degrees of freedom in the 1st order CPHF.  IDoFFX=6 NUNeed=     3.
     27 vectors produced by pass  0 Test12= 6.80D-15 3.33D-09 XBig12= 1.53D+01 1.46D+00.
 AX will form    27 AO Fock derivatives at one time.
     27 vectors produced by pass  1 Test12= 6.80D-15 3.33D-09 XBig12= 1.15D+00 2.30D-01.
     27 vectors produced by pass  2 Test12= 6.80D-15 3.33D-09 XBig12= 1.88D-02 2.79D-02.
     27 vectors produced by pass  3 Test12= 6.80D-15 3.33D-09 XBig12= 6.52D-05 1.22D-03.
     27 vectors produced by pass  4 Test12= 6.80D-15 3.33D-09 XBig12= 9.97D-08 5.22D-05.
     15 vectors produced by pass  5 Test12= 6.80D-15 3.33D-09 XBig12= 7.48D-11 1.36D-06.
      3 vectors produced by pass  6 Test12= 6.80D-15 3.33D-09 XBig12= 6.12D-14 3.92D-08.
 InvSVY:  IOpt=1 It=  1 EMax= 3.11D-15
 Solved reduced A of dimension   153 with    30 vectors.
 Isotropic polarizability for W=    0.000000       28.31 Bohr**3.
 End of Minotr F.D. properties file   721 does not exist.
 End of Minotr F.D. properties file   722 does not exist.
 End of Minotr F.D. properties file   788 does not exist.

 **********************************************************************

            Population analysis using the SCF Density.

 **********************************************************************

 Orbital symmetries:
       Occupied  (A) (A) (A) (A) (A) (A) (A) (A) (A) (A) (A) (A)
                 (A) (A) (A) (A) (A)
       Virtual   (A) (A) (A) (A) (A) (A) (A) (A) (A) (A) (A) (A)
                 (A) (A) (A) (A) (A) (A) (A) (A) (A) (A) (A) (A)
                 (A) (A) (A) (A) (A) (A) (A) (A) (A) (A) (A) (A)
                 (A) (A) (A) (A) (A) (A) (A) (A) (A) (A) (A) (A)
                 (A) (A) (A) (A) (A) (A) (A) (A) (A) (A) (A) (A)
                 (A) (A) (A) (A) (A) (A) (A) (A) (A) (A) (A) (A)
                 (A) (A) (A) (A) (A) (A) (A) (A) (A) (A) (A) (A)
                 (A) (A) (A) (A) (A) (A) (A) (A) (A) (A) (A) (A)
                 (A) (A) (A) (A) (A) (A) (A) (A) (A) (A) (A) (A)
                 (A) (A) (A) (A) (A) (A) (A) (A) (A) (A) (A) (A)
 The electronic state is 1-A.
 Alpha  occ. eigenvalues --  -24.66624 -19.14417 -10.25115 -10.23460  -1.18103
 Alpha  occ. eigenvalues --   -1.02522  -0.74588  -0.62121  -0.52986  -0.49912
 Alpha  occ. eigenvalues --   -0.46052  -0.45387  -0.42304  -0.36485  -0.32990
 Alpha  occ. eigenvalues --   -0.32148  -0.27630
 Alpha virt. eigenvalues --    0.06349   0.10479   0.14271   0.14739   0.15750
 Alpha virt. eigenvalues --    0.19918   0.21992   0.25172   0.42671   0.47074
 Alpha virt. eigenvalues --    0.48743   0.51344   0.54036   0.63594   0.66229
 Alpha virt. eigenvalues --    0.68001   0.69854   0.71680   0.76577   0.78837
 Alpha virt. eigenvalues --    0.79279   0.83844   0.87261   0.89300   0.91158
 Alpha virt. eigenvalues --    0.93595   0.97299   0.99794   1.04019   1.06987
 Alpha virt. eigenvalues --    1.08619   1.10964   1.25429   1.27018   1.30090
 Alpha virt. eigenvalues --    1.38451   1.40584   1.43778   1.48748   1.52573
 Alpha virt. eigenvalues --    1.59550   1.63608   1.65454   1.70010   1.76483
 Alpha virt. eigenvalues --    1.92388   1.96820   2.05884   2.11879   2.20724
 Alpha virt. eigenvalues --    2.26006   2.39526   2.42835   2.48588   2.53519
 Alpha virt. eigenvalues --    2.60045   2.66589   2.68061   2.80950   2.82543
 Alpha virt. eigenvalues --    2.87584   2.92064   2.94146   2.96712   3.05829
 Alpha virt. eigenvalues --    3.15837   3.26958   3.33555   3.36546   3.38347
 Alpha virt. eigenvalues --    3.39596   3.51004   3.54443   3.56177   3.78919
 Alpha virt. eigenvalues --    3.81234   3.86311   3.93690   4.13113   4.17989
 Alpha virt. eigenvalues --    4.20681   4.28873   4.33977   4.39320   4.41615
 Alpha virt. eigenvalues --    4.41961   4.49403   4.51982   4.56384   4.57372
 Alpha virt. eigenvalues --    4.61365   4.65377   4.69475   4.70075   4.72608
 Alpha virt. eigenvalues --    4.76467   4.80542   4.84612   4.97335   5.22559
 Alpha virt. eigenvalues --    5.30814   5.40241   5.46235   5.52235   5.81868
 Alpha virt. eigenvalues --    5.92081   5.97178   6.06012   6.66872   6.67775
 Alpha virt. eigenvalues --    6.79237   6.80069   7.03683   7.24724   7.30988
 Alpha virt. eigenvalues --    7.34046   9.54731  10.97714  11.87618  13.14710
          Condensed to atoms (all electrons):
               1          2          3          4          5          6
     1  C    4.890070   0.357198   0.356680   0.352748  -0.049096  -0.038312
     2  H    0.357198   0.661792  -0.055835  -0.025250   0.006787  -0.008994
     3  H    0.356680  -0.055835   0.656669  -0.042968  -0.003047   0.006786
     4  C    0.352748  -0.025250  -0.042968   4.694543   0.354899   0.354130
     5  H   -0.049096   0.006787  -0.003047   0.354899   0.635981  -0.050656
     6  H   -0.038312  -0.008994   0.006786   0.354130  -0.050656   0.650306
     7  F   -0.037372   0.001613   0.007393   0.378185  -0.021416  -0.021905
     8  O    0.309609  -0.028441  -0.026876  -0.027501   0.009376   0.003136
     9  H   -0.045327  -0.005081  -0.002356   0.005735  -0.000124  -0.000352
               7          8          9
     1  C   -0.037372   0.309609  -0.045327
     2  H    0.001613  -0.028441  -0.005081
     3  H    0.007393  -0.026876  -0.002356
     4  C    0.378185  -0.027501   0.005735
     5  H   -0.021416   0.009376  -0.000124
     6  H   -0.021905   0.003136  -0.000352
     7  F    8.850357   0.000541  -0.000045
     8  O    0.000541   7.873473   0.304161
     9  H   -0.000045   0.304161   0.450768
 Mulliken charges:
               1
     1  C   -0.096197
     2  H    0.096211
     3  H    0.103555
     4  C   -0.044519
     5  H    0.117296
     6  H    0.105861
     7  F   -0.157351
     8  O   -0.417478
     9  H    0.292622
 Sum of Mulliken charges =  -0.00000
 Mulliken charges with hydrogens summed into heavy atoms:
               1
     1  C    0.103568
     4  C    0.178638
     7  F   -0.157351
     8  O   -0.124856
 APT charges:
               1
     1  C    0.452865
     2  H   -0.078940
     3  H   -0.071896
     4  C    0.559510
     5  H   -0.037906
     6  H   -0.053445
     7  F   -0.456886
     8  O   -0.555704
     9  H    0.242402
 Sum of APT charges =   0.00000
 APT charges with hydrogens summed into heavy atoms:
               1
     1  C    0.302030
     4  C    0.468158
     7  F   -0.456886
     8  O   -0.313303
 Electronic spatial extent (au):  <R**2>=            325.1942
 Charge=             -0.0000 electrons
 Dipole moment (field-independent basis, Debye):
    X=             -1.5958    Y=              0.7323    Z=              0.8092  Tot=              1.9333
 Quadrupole moment (field-independent basis, Debye-Ang):
   XX=            -23.6521   YY=            -23.0023   ZZ=            -23.2045
   XY=             -3.7727   XZ=             -0.0986   YZ=             -0.1108
 Traceless Quadrupole moment (field-independent basis, Debye-Ang):
   XX=             -0.3658   YY=              0.2840   ZZ=              0.0818
   XY=             -3.7727   XZ=             -0.0986   YZ=             -0.1108
 Octapole moment (field-independent basis, Debye-Ang**2):
  XXX=            -13.9310  YYY=              0.4393  ZZZ=             -1.1582  XYY=              2.2742
  XXY=              5.4469  XXZ=              0.9594  XZZ=              2.7775  YZZ=              0.1723
  YYZ=             -0.9057  XYZ=              0.0496
 Hexadecapole moment (field-independent basis, Debye-Ang**3):
 XXXX=           -212.6014 YYYY=            -60.7113 ZZZZ=            -37.0297 XXXY=            -10.9587
 XXXZ=             -0.7475 YYYX=              2.7626 YYYZ=             -0.0461 ZZZX=             -1.4514
 ZZZY=             -0.3468 XXYY=            -51.2862 XXZZ=            -48.7718 YYZZ=            -15.2567
 XXYZ=             -0.4811 YYXZ=             -0.4080 ZZXY=              0.2281
 N-N= 1.280042539515D+02 E-N=-8.557048870045D+02  KE= 2.526717049318D+02
  Exact polarizability:      31.494      -0.736      27.610       0.224       0.212      25.822
 Approx polarizability:      39.869       1.131      37.563      -0.170       0.494      35.178
 Calling FoFJK, ICntrl=    100127 FMM=F ISym2X=0 I1Cent= 0 IOpClX= 0 NMat=1 NMatS=1 NMatT=0.
 Full mass-weighted force constant matrix:
 Low frequencies ---  -13.8303   -0.0008   -0.0008    0.0004    3.2631   21.7846
 Low frequencies ---   42.4126  238.7182  324.4937
 Diagonal vibrational polarizability:
        7.5365215       5.8000492     122.9407189
 Harmonic frequencies (cm**-1), IR intensities (KM/Mole), Raman scattering
 activities (A**4/AMU), depolarization ratios for plane and unpolarized
 incident light, reduced masses (AMU), force constants (mDyne/A),
 and normal coordinates:
                      1                      2                      3
                      A                      A                      A
 Frequencies --     42.3881               238.6944               324.3192
 Red. masses --      3.0571                 1.1167                 3.2154
 Frc consts  --      0.0032                 0.0375                 0.1993
 IR Inten    --      4.8912               109.5613                18.7076
  Atom  AN      X      Y      Z        X      Y      Z        X      Y      Z
     1   6     0.02   0.01  -0.20    -0.01   0.03  -0.02    -0.10   0.20   0.07
     2   1     0.24   0.22  -0.29    -0.05   0.01  -0.02    -0.21   0.05   0.14
     3   1    -0.10  -0.15  -0.40    -0.02   0.05   0.00    -0.30   0.32   0.14
     4   6    -0.03  -0.03  -0.21    -0.01   0.03   0.01    -0.11   0.18  -0.08
     5   1     0.10   0.14  -0.42    -0.03   0.01   0.04    -0.30   0.33  -0.18
     6   1    -0.25  -0.25  -0.28    -0.04   0.06   0.03    -0.24   0.00  -0.15
     7   9     0.05   0.03   0.17     0.02  -0.03   0.00     0.09  -0.14   0.00
     8   8    -0.06  -0.02   0.18     0.01   0.00  -0.06     0.12  -0.14   0.03
     9   1    -0.02   0.01   0.24    -0.10  -0.35   0.92    -0.04  -0.28  -0.40
                      4                      5                      6
                      A                      A                      A
 Frequencies --    463.2055               825.0942              1011.3953
 Red. masses --      6.6341                 1.1886                 2.7178
 Frc consts  --      0.8386                 0.4768                 1.6380
 IR Inten    --      1.4346                 2.2469                35.1468
  Atom  AN      X      Y      Z        X      Y      Z        X      Y      Z
     1   6    -0.21  -0.10   0.02     0.01  -0.01  -0.07     0.15  -0.21  -0.00
     2   1    -0.25  -0.26   0.10     0.20  -0.44   0.19     0.06  -0.21  -0.02
     3   1    -0.35   0.06   0.14    -0.22   0.35   0.23     0.13  -0.20   0.01
     4   6     0.17   0.12   0.00    -0.01   0.00  -0.08    -0.09   0.27   0.00
     5   1     0.29  -0.02   0.13     0.22  -0.34   0.24    -0.26   0.36  -0.05
     6   1     0.20   0.28   0.07    -0.20   0.45   0.16    -0.18   0.14  -0.05
     7   9     0.36  -0.05  -0.02    -0.03  -0.01   0.03    -0.03  -0.04   0.01
     8   8    -0.38   0.02  -0.02     0.03   0.01   0.03    -0.02  -0.04  -0.02
     9   1    -0.21   0.25  -0.03     0.04   0.03  -0.01     0.41   0.52   0.20
                      7                      8                      9
                      A                      A                      A
 Frequencies --   1081.2714              1101.1711              1157.1788
 Red. masses --      7.2416                 4.2994                 1.6200
 Frc consts  --      4.9883                 3.0716                 1.2781
 IR Inten    --    144.1903                16.8152                 0.3531
  Atom  AN      X      Y      Z        X      Y      Z        X      Y      Z
     1   6     0.35   0.31   0.01    -0.21  -0.10  -0.05     0.00  -0.03   0.16
     2   1     0.31  -0.01   0.16    -0.40   0.05  -0.13     0.40   0.44  -0.04
     3   1    -0.02   0.49   0.13    -0.36  -0.04  -0.08    -0.04  -0.40  -0.23
     4   6     0.30   0.06  -0.00     0.32   0.14  -0.04     0.00   0.04  -0.15
     5   1     0.06   0.17  -0.07     0.36   0.20  -0.14     0.02  -0.25   0.18
     6   1     0.24  -0.12  -0.06     0.43  -0.13  -0.16     0.15   0.45   0.02
     7   9    -0.19  -0.09   0.05    -0.18  -0.13   0.05    -0.02  -0.02   0.04
     8   8    -0.29  -0.21  -0.07     0.12   0.11   0.04    -0.01   0.01  -0.05
     9   1    -0.12   0.05  -0.02     0.09   0.06   0.03    -0.15  -0.19  -0.07
                     10                     11                     12
                      A                      A                      A
 Frequencies --   1243.3141              1255.9664              1291.1773
 Red. masses --      1.1444                 1.1617                 1.0821
 Frc consts  --      1.0423                 1.0797                 1.0629
 IR Inten    --      2.6996                36.9304                 8.8551
  Atom  AN      X      Y      Z        X      Y      Z        X      Y      Z
     1   6    -0.01  -0.02   0.03     0.00  -0.04  -0.04     0.01   0.02   0.06
     2   1     0.52   0.05   0.06     0.23  -0.21   0.06    -0.42   0.17  -0.07
     3   1    -0.49  -0.06  -0.13     0.55  -0.03   0.12     0.38  -0.07   0.06
     4   6     0.01   0.01   0.09    -0.00   0.07   0.02     0.01   0.00  -0.04
     5   1     0.38   0.16  -0.16     0.13   0.14  -0.08     0.59  -0.07  -0.10
     6   1    -0.46  -0.23   0.05    -0.01  -0.03  -0.02    -0.49   0.09   0.08
     7   9    -0.00  -0.00  -0.04    -0.01  -0.02  -0.00    -0.01  -0.01  -0.02
     8   8     0.01   0.01  -0.03    -0.02   0.04   0.03    -0.01  -0.02   0.01
     9   1    -0.04  -0.05  -0.03    -0.45  -0.53  -0.21     0.09   0.11   0.05
                     13                     14                     15
                      A                      A                      A
 Frequencies --   1398.6046              1471.5399              1512.6612
 Red. masses --      1.2702                 1.4887                 1.0822
 Frc consts  --      1.4638                 1.8994                 1.4589
 IR Inten    --      8.0938                 4.1452                 0.2770
  Atom  AN      X      Y      Z        X      Y      Z        X      Y      Z
     1   6    -0.06   0.05  -0.01     0.16  -0.06   0.01     0.02   0.03   0.01
     2   1     0.32  -0.03   0.08    -0.48   0.10  -0.16    -0.13  -0.29   0.14
     3   1     0.20   0.01   0.02    -0.49   0.13   0.02    -0.09  -0.22  -0.26
     4   6    -0.11   0.03   0.02    -0.11   0.03   0.01    -0.02  -0.06   0.02
     5   1     0.56  -0.08  -0.03     0.37  -0.11   0.04     0.09   0.39  -0.47
     6   1     0.59  -0.13  -0.16     0.31  -0.12  -0.13     0.20   0.52   0.23
     7   9     0.00  -0.02   0.00     0.01  -0.01   0.00    -0.00  -0.01   0.00
     8   8     0.01  -0.04  -0.01    -0.01   0.04   0.01     0.00   0.01   0.00
     9   1     0.22   0.24   0.10    -0.25  -0.28  -0.12    -0.02  -0.02  -0.00
                     16                     17                     18
                      A                      A                      A
 Frequencies --   1528.8137              2983.5173              3019.0786
 Red. masses --      1.0858                 1.0557                 1.1044
 Frc consts  --      1.4952                 5.5369                 5.9309
 IR Inten    --      4.9380                46.0574                36.0243
  Atom  AN      X      Y      Z        X      Y      Z        X      Y      Z
     1   6    -0.01  -0.07  -0.02     0.00   0.07  -0.00     0.02   0.00  -0.09
     2   1     0.18   0.51  -0.27     0.06  -0.25  -0.53    -0.09   0.36   0.69
     3   1     0.02   0.43   0.45    -0.15  -0.54   0.58    -0.10  -0.39   0.38
     4   6    -0.01  -0.04   0.01     0.00  -0.00  -0.00     0.00  -0.01   0.02
     5   1    -0.01   0.24  -0.27     0.01   0.03   0.03    -0.00  -0.01  -0.00
     6   1     0.09   0.29   0.14    -0.00   0.01  -0.02    -0.03   0.10  -0.22
     7   9    -0.00  -0.00  -0.00    -0.00  -0.00   0.00    -0.00  -0.00   0.00
     8   8    -0.00  -0.01  -0.00     0.00   0.00   0.00    -0.00   0.00   0.00
     9   1     0.02   0.02   0.01     0.00   0.00   0.00     0.00  -0.01   0.00
                     19                     20                     21
                      A                      A                      A
 Frequencies --   3034.2146              3086.1805              3838.3960
 Red. masses --      1.0570                 1.1101                 1.0665
 Frc consts  --      5.7332                 6.2294                 9.2577
 IR Inten    --     37.2351                51.4735                26.1789
  Atom  AN      X      Y      Z        X      Y      Z        X      Y      Z
     1   6     0.00   0.00  -0.01     0.00  -0.00  -0.02     0.00   0.00   0.00
     2   1    -0.01   0.04   0.08    -0.02   0.07   0.14     0.00  -0.00  -0.00
     3   1    -0.02  -0.09   0.08    -0.02  -0.07   0.07     0.00   0.00   0.00
     4   6     0.00   0.07  -0.00    -0.02  -0.01  -0.09     0.00  -0.00   0.00
     5   1    -0.13  -0.53  -0.52     0.10   0.47   0.43     0.00  -0.00  -0.00
     6   1     0.08  -0.25   0.58     0.11  -0.31   0.66    -0.00   0.00  -0.00
     7   9     0.00   0.00  -0.00     0.00   0.00   0.00     0.00  -0.00  -0.00
     8   8    -0.00  -0.00  -0.00    -0.00   0.00   0.00    -0.05   0.03   0.01
     9   1    -0.00  -0.00  -0.00     0.00  -0.00   0.00     0.81  -0.57  -0.11

 -------------------
 - Thermochemistry -
 -------------------
 Temperature   298.150 Kelvin.  Pressure   1.00000 Atm.
 Atom     1 has atomic number  6 and mass  12.00000
 Atom     2 has atomic number  1 and mass   1.00783
 Atom     3 has atomic number  1 and mass   1.00783
 Atom     4 has atomic number  6 and mass  12.00000
 Atom     5 has atomic number  1 and mass   1.00783
 Atom     6 has atomic number  1 and mass   1.00783
 Atom     7 has atomic number  9 and mass  18.99840
 Atom     8 has atomic number  8 and mass  15.99491
 Atom     9 has atomic number  1 and mass   1.00783
 Molecular mass:    64.03244 amu.
 Principal axes and moments of inertia in atomic units:
                           1         2         3
     Eigenvalues --    62.69477 455.49551 482.07210
           X            0.99951  -0.03099   0.00428
           Y            0.03099   0.99952  -0.00151
           Z           -0.00423   0.00164   0.99999
 This molecule is an asymmetric top.
 Rotational symmetry number  1.
 Rotational temperatures (Kelvin)      1.38152     0.19015     0.17967
 Rotational constants (GHZ):          28.78615     3.96215     3.74372
 Zero-point vibrational energy     190853.3 (Joules/Mol)
                                   45.61504 (Kcal/Mol)
 Warning -- explicit consideration of   4 degrees of freedom as
           vibrations may cause significant error
 Vibrational temperatures:     60.99   343.43   466.62   666.45  1187.13
          (Kelvin)           1455.17  1555.71  1584.34  1664.92  1788.85
                             1807.06  1857.72  2012.28  2117.22  2176.38
                             2199.62  4292.62  4343.78  4365.56  4440.33
                             5522.60
 
 Zero-point correction=                           0.072692 (Hartree/Particle)
 Thermal correction to Energy=                    0.077761
 Thermal correction to Enthalpy=                  0.078705
 Thermal correction to Gibbs Free Energy=         0.044433
 Sum of electronic and zero-point Energies=           -254.206181
 Sum of electronic and thermal Energies=              -254.201113
 Sum of electronic and thermal Enthalpies=            -254.200168
 Sum of electronic and thermal Free Energies=         -254.234440
 
                     E (Thermal)             CV                S
                      KCal/Mol        Cal/Mol-Kelvin    Cal/Mol-Kelvin
 Total                   48.796             15.298             72.131
 Electronic               0.000              0.000              0.000
 Translational            0.889              2.981             38.389
 Rotational               0.889              2.981             24.135
 Vibrational             47.018              9.336              9.606
 Vibration     1          0.595              1.980              5.144
 Vibration     2          0.657              1.781              1.813
 Vibration     3          0.709              1.627              1.288
 Vibration     4          0.821              1.332              0.757
                       Q            Log10(Q)             Ln(Q)
 Total Bot       0.364830D-20        -20.437909        -47.060025
 Total V=0       0.995741D+13         12.998146         29.929338
 Vib (Bot)       0.431298D-32        -32.365223        -74.523679
 Vib (Bot)    1  0.488023D+01          0.688440          1.585192
 Vib (Bot)    2  0.821959D+00         -0.085150         -0.196065
 Vib (Bot)    3  0.578118D+00         -0.237984         -0.547978
 Vib (Bot)    4  0.366222D+00         -0.436255         -1.004515
 Vib (V=0)       0.117715D+02          1.070833          2.465684
 Vib (V=0)    1  0.540578D+01          0.732858          1.687468
 Vib (V=0)    2  0.146209D+01          0.164974          0.379867
 Vib (V=0)    3  0.126434D+01          0.101865          0.234552
 Vib (V=0)    4  0.111977D+01          0.049130          0.113126
 Electronic      0.100000D+01          0.000000          0.000000
 Translational   0.201397D+08          7.304054         16.818206
 Rotational      0.420010D+05          4.623259         10.645448
 ***** Axes restored to original set *****
 -------------------------------------------------------------------
 Center     Atomic                   Forces (Hartrees/Bohr)
 Number     Number              X              Y              Z
 -------------------------------------------------------------------
      1        6           0.000591374    0.000769914   -0.002485843
      2        1           0.000037996   -0.000018301    0.000024766
      3        1          -0.000023424    0.000028838    0.000005163
      4        6          -0.000636599   -0.000959635   -0.002570698
      5        1          -0.000002600    0.000034244    0.000022791
      6        1           0.000036202   -0.000025585    0.000002203
      7        9           0.000384335    0.000591040    0.002539370
      8        8          -0.000374636   -0.000426069    0.002460816
      9        1          -0.000012648    0.000005553    0.000001431
 -------------------------------------------------------------------
 Cartesian Forces:  Max     0.002570698 RMS     0.001025366

 GradGradGradGradGradGradGradGradGradGradGradGradGradGradGradGradGradGrad
 Berny optimization.
 Search for a local minimum.
 Step number   1 out of a maximum of    2
 All quantities printed in internal units (Hartrees-Bohrs-Radians)
 Second derivative matrix not updated -- analytic derivatives used.
 ITU=  0
     Eigenvalues ---    0.00025   0.00347   0.01726   0.03175   0.05235
     Eigenvalues ---    0.06744   0.07662   0.08225   0.11819   0.11925
     Eigenvalues ---    0.15231   0.16654   0.21217   0.30737   0.47045
     Eigenvalues ---    0.65576   0.72602   0.76258   0.82704   0.83559
     Eigenvalues ---    1.04451
 Quadratic step=8.790D+00 exceeds max=3.000D-01 adjusted using Lamda=-7.334D-03.
 Angle between NR and scaled steps=  14.23 degrees.
 Angle between quadratic step and forces=  59.92 degrees.
 Linear search not attempted -- first point.
 B after Tr=     0.001179    0.001551    0.027972
         Rot=    0.999997   -0.000168    0.001753   -0.001430 Ang=  -0.26 deg.
 Variable       Old X    -DE/DX   Delta X   Delta X   Delta X     New X
                                 (Linear)    (Quad)   (Total)
    X1       -1.07516   0.00059   0.00000   0.00637   0.00404  -1.07112
    Y1        0.93028   0.00077   0.00000   0.00264   0.00105   0.93132
    Z1        0.29354  -0.00249   0.00000  -0.05084  -0.02631   0.26724
    X2       -1.27963   0.00004   0.00000   0.07929   0.06770  -1.21193
    Y2        1.89687  -0.00002   0.00000   0.06032   0.05773   1.95459
    Z2        2.12108   0.00002   0.00000  -0.07128  -0.04688   2.07420
    X3       -0.65211  -0.00002   0.00000  -0.04060  -0.04167  -0.69378
    Y3        2.37139   0.00003   0.00000  -0.04302  -0.04303   2.32836
    Z3       -1.14593   0.00001   0.00000  -0.10929  -0.08297  -1.22890
    X4        1.15135  -0.00064   0.00000  -0.00708  -0.00429   1.14706
    Y4       -0.90515  -0.00096   0.00000  -0.00828  -0.00355  -0.90870
    Z4        0.33090  -0.00257   0.00000  -0.04930  -0.01762   0.31328
    X5        0.78093  -0.00000   0.00000   0.04490   0.05692   0.83785
    Y5       -2.39739   0.00003   0.00000   0.03851   0.04283  -2.35457
    Z5       -1.05845   0.00002   0.00000  -0.11220  -0.08210  -1.14056
    X6        1.42352   0.00004   0.00000  -0.08302  -0.08401   1.33951
    Y6       -1.77588  -0.00003   0.00000  -0.07138  -0.06671  -1.84260
    Z6        2.18944   0.00000   0.00000  -0.06653  -0.03448   2.15495
    X7        3.33673   0.00038   0.00000   0.02028   0.02118   3.35792
    Y7        0.34820   0.00059   0.00000   0.02239   0.03361   0.38181
    Z7       -0.33640   0.00254   0.00000   0.10165   0.14151  -0.19489
    X8       -3.25599  -0.00037   0.00000  -0.01988  -0.01636  -3.27235
    Y8       -0.49385  -0.00043   0.00000  -0.01940  -0.02713  -0.52098
    Z8       -0.33699   0.00246   0.00000   0.09776   0.11408  -0.22291
    X9       -4.71254  -0.00001   0.00000  -0.00342  -0.00350  -4.71605
    Y9        0.57128   0.00001   0.00000   0.01711   0.00521   0.57649
    Z9       -0.12925   0.00000   0.00000   0.02314   0.03477  -0.09448
         Item               Value     Threshold  Converged?
 Maximum Force            0.002571     0.000450     NO 
 RMS     Force            0.001025     0.000300     NO 
 Maximum Displacement     0.141512     0.001800     NO 
 RMS     Displacement     0.055451     0.001200     NO 
 Predicted change in Energy=-7.336332D-04
 GradGradGradGradGradGradGradGradGradGradGradGradGradGradGradGradGradGrad


 ----------------------------------------------------------------------

 Electric dipole moment (input orientation):
 (Debye = 10**-18 statcoulomb cm , SI units = C m)
                  (au)            (Debye)         (10**-30 SI)
   Tot        0.760618D+00      0.193330D+01      0.644879D+01
   x         -0.627831D+00     -0.159579D+01     -0.532298D+01
   y          0.288108D+00      0.732297D+00      0.244268D+01
   z          0.318374D+00      0.809225D+00      0.269928D+01

 Dipole polarizability, Alpha (input orientation).
 (esu units = cm**3 , SI units = C**2 m**2 J**-1)
 Alpha(0;0):
               (au)            (10**-24 esu)      (10**-40 SI)
   iso        0.283086D+02      0.419490D+01      0.466746D+01
   aniso      0.520922D+01      0.771926D+00      0.858884D+00
   xx         0.314938D+02      0.466689D+01      0.519262D+01
   yx        -0.735892D+00     -0.109048D+00     -0.121332D+00
   yy         0.276104D+02      0.409144D+01      0.455234D+01
   zx         0.223628D+00      0.331383D-01      0.368713D-01
   zy         0.212071D+00      0.314257D-01      0.349658D-01
   zz         0.258216D+02      0.382637D+01      0.425741D+01

 ----------------------------------------------------------------------

 Dipole orientation:
     6         -0.11144373          0.48803344          1.36270067
     1          1.50381636          0.61956056          2.66255580
     1         -0.76212419          2.42188093          0.95684997
     6          0.67200277         -0.68518602         -1.15469949
     1         -0.99619787         -1.58187906         -1.99572778
     1          2.15562429         -2.11184230         -0.93123717
     9          1.53321185          1.17581991         -2.76313478
     8         -2.07917891         -1.03387606          2.35945370
     1         -2.42994209         -0.47618591          4.05213196

 Electric dipole moment (dipole orientation):
 (Debye = 10**-18 statcoulomb cm , SI units = C m)
                  (au)            (Debye)         (10**-30 SI)
   Tot        0.760618D+00      0.193330D+01      0.644879D+01
   x          0.000000D+00      0.000000D+00      0.000000D+00
   y          0.000000D+00      0.000000D+00      0.000000D+00
   z          0.760618D+00      0.193330D+01      0.644879D+01

 Dipole polarizability, Alpha (dipole orientation).
 (esu units = cm**3 , SI units = C**2 m**2 J**-1)
 Alpha(0;0):
               (au)            (10**-24 esu)      (10**-40 SI)
   iso        0.283086D+02      0.419490D+01      0.466746D+01
   aniso      0.520922D+01      0.771926D+00      0.858884D+00
   xx         0.275410D+02      0.408116D+01      0.454090D+01
   yx         0.760860D+00      0.112748D+00      0.125449D+00
   yy         0.270691D+02      0.401122D+01      0.446309D+01
   zx        -0.231274D+01     -0.342712D+00     -0.381319D+00
   zy         0.201590D+00      0.298726D-01      0.332377D-01
   zz         0.303157D+02      0.449232D+01      0.499838D+01

 ----------------------------------------------------------------------
 Unable to Open any file for archive entry.
 1\1\GINC-COMPUTE-2-1\Freq\RB3LYP\6-31G(2df,p)\C2H5F1O1\JINGDAN2\05-Dec
 -2024\0\\# freq b3lyp/6-31g(2df,p)\\energy: -15.614184499692 gnorm: 0.
 000439253721 xtb: 6.6.1 (8d0f1dd)\\0,1\C,-0.56895,0.492281,0.155336\H,
 -0.677151,1.003778,1.122426\H,-0.34508,1.254888,-0.606398\C,0.609267,-
 0.478987,0.175103\H,0.413253,-1.268646,-0.56011\H,0.753293,-0.939757,1
 .1586\F,1.765724,0.184257,-0.178016\O,-1.722995,-0.261332,-0.178326\H,
 -2.493771,0.302311,-0.068396\\Version=ES64L-G16RevC.01\State=1-A\HF=-2
 54.2788736\RMSD=8.699e-09\RMSF=1.025e-03\ZeroPoint=0.0726922\Thermal=0
 .077761\ETot=-254.2011126\HTot=-254.2001684\GTot=-254.2344402\Dipole=-
 0.6278314,0.2881077,0.3183735\DipoleDeriv=0.6255065,0.20095,0.0394441,
 0.2842202,0.3319352,0.0409628,0.0639029,0.0406223,0.4011541,-0.0464735
 ,0.0260545,0.0183205,-0.0174674,-0.0419239,-0.0863271,0.0022459,-0.116
 9129,-0.1484214,-0.0439237,-0.0395954,0.0214622,-0.057801,-0.0921448,0
 .0791354,0.027568,0.1134971,-0.0796185,0.7906427,0.1572685,-0.0749692,
 0.205861,0.4521106,-0.0737805,-0.0994918,-0.0599456,0.4357756,-0.00158
 53,-0.0221965,-0.0019856,-0.027985,-0.0602627,-0.0643555,-0.0095363,-0
 .1008845,-0.0518713,-0.0260435,0.0338497,-0.0342855,0.0079694,-0.01336
 37,0.060885,-0.0211552,0.0986278,-0.1209274,-0.7457323,-0.1759886,0.10
 21348,-0.2219697,-0.3580549,0.0692146,0.1324048,0.0676737,-0.26687,-0.
 771709,-0.2398479,-0.0780717,-0.2555149,-0.4042131,0.0109943,-0.100490
 7,-0.0067561,-0.4911911,0.2193181,0.0595058,0.0079504,0.0826875,0.1859
 173,-0.036729,0.0045524,-0.0359218,0.3219701\Polar=31.4937501,-0.73589
 25,27.6103971,0.2236282,0.2120714,25.8216497\Quadrupole=-0.2719871,0.2
 111624,0.0608247,-2.8048992,-0.0732882,-0.0823568\PG=C01 [X(C2H5F1O1)]
 \NImag=0\\0.48029366,-0.00628315,0.53785038,-0.03346372,0.00240961,0.5
 7987684,-0.05623964,0.01634022,0.03269455,0.06234665,0.01405034,-0.096
 47049,-0.08916988,-0.01098964,0.10838539,0.03161974,-0.09341469,-0.245
 07765,-0.02631618,0.10762580,0.26237313,-0.05415671,-0.02174605,0.0291
 8534,0.00265797,-0.00236915,0.00508866,0.06738539,-0.02278496,-0.15790
 944,0.11301010,0.00364081,0.01052124,-0.01013540,0.03687983,0.17848908
 ,0.02925868,0.11586504,-0.18061356,0.00404935,0.01918640,-0.02086004,-
 0.03215998,-0.12700239,0.18577319,-0.12009899,0.06718280,-0.00499668,-
 0.00042046,0.00286941,-0.00185416,0.00205791,-0.00186180,0.00108259,0.
 47489479,0.06937106,-0.14218212,0.00105591,0.01376259,-0.01081331,0.00
 310228,0.01764910,-0.01800561,0.00163130,0.01099207,0.54117082,-0.0004
 4739,-0.00124720,-0.08431024,0.02324716,-0.01940723,0.00181613,-0.0184
 6116,0.02087590,-0.00172921,0.03387712,0.00581250,0.60849285,0.0023959
 7,0.01814116,0.01708850,-0.00384252,0.00260038,-0.00058982,0.00029247,
 -0.00016226,-0.00022885,-0.05322587,-0.02028926,-0.02332528,0.06796121
 ,-0.00010016,-0.01756600,-0.02003848,0.00305338,-0.00231774,0.00089729
 ,-0.00030292,0.00057541,0.00027954,-0.02319184,-0.17489752,-0.11929417
 ,0.03611911,0.19544774,-0.00092075,0.00015715,0.00022922,-0.00011054,-
 0.00018208,0.00127157,0.00023069,-0.00030787,0.00043235,-0.02807264,-0
 .12533536,-0.18043328,0.02810936,0.13409096,0.18229138,-0.00039211,0.0
 1254942,-0.02278463,0.00102592,-0.00082759,0.00047806,-0.00399545,0.00
 299359,-0.00009998,-0.05784813,0.01894894,-0.04551251,0.00298304,0.003
 50126,-0.00354540,0.06604490,0.00461050,-0.00842314,0.01965330,-0.0009
 6812,0.00107308,-0.00021843,0.00250090,-0.00234900,0.00034639,0.016955
 84,-0.09042656,0.08436161,-0.00268796,0.01060305,-0.02048606,-0.013228
 79,0.09957144,0.00198046,-0.00319040,0.00155830,-0.00037949,0.00020353
 ,0.00147436,0.00047776,-0.00085233,0.00124405,-0.03968024,0.08990478,-
 0.26199805,-0.00532430,0.00896400,-0.01855328,0.03436339,-0.10361829,0
 .27952189,-0.03837230,-0.02584829,0.01027434,-0.00072219,0.00187512,0.
 00152248,0.00216883,-0.00223045,-0.00081068,-0.20536105,-0.08306560,0.
 03956748,-0.01885900,-0.01619763,0.00378414,-0.00806563,-0.00893462,0.
 01022211,0.28115126,0.00797557,0.01100037,-0.00176687,-0.00117782,0.00
 080135,-0.00019278,-0.00065418,0.00375204,-0.00152217,-0.08297287,-0.1
 1598544,0.02561588,-0.03337365,-0.01477184,0.01112293,-0.02310265,-0.0
 1035626,0.00840360,0.12827472,0.12544322,0.00434721,0.00418797,0.00216
 780,-0.00141959,0.00003863,0.00041350,-0.00021701,-0.00186850,0.001084
 14,0.04360305,0.02659366,-0.08286199,-0.01615248,-0.00621515,0.0141572
 5,0.03565684,0.01992833,-0.00362372,-0.06540050,-0.04170607,0.06778187
 ,-0.18286950,-0.08388585,-0.03271365,-0.00753363,-0.00792406,-0.009381
 38,-0.01763250,-0.01718998,-0.00194725,-0.03657342,-0.02210827,-0.0078
 9904,0.00203382,-0.00214042,0.00054453,0.00024847,0.00144609,-0.001454
 81,-0.01012559,0.00441312,-0.00025263,0.58878930,-0.03845087,-0.136151
 91,-0.02572830,-0.02301377,-0.01140434,-0.00693876,-0.03103903,-0.0149
 6153,-0.00896004,0.01141296,0.01399064,0.00471312,-0.00027072,0.002364
 63,0.00045120,-0.00076097,0.00011199,0.00011555,0.00752469,-0.00045877
 ,-0.00145835,-0.12781341,0.35940685,-0.01952670,-0.03026122,-0.0724960
 9,-0.03135345,-0.01917690,-0.00219108,0.01505976,0.00707866,0.01436270
 ,-0.00287252,-0.00028414,0.00123350,0.00046652,0.00099492,0.00038522,0
 .00117983,-0.00033299,0.00033701,0.00155455,-0.00050960,0.00060768,0.0
 0078013,0.08714819,0.07093559,-0.03056038,0.02354974,0.00471594,0.0027
 2791,0.00071520,-0.00056740,0.00122210,0.00071522,0.00085613,-0.003424
 77,-0.00526061,-0.00104638,0.00026088,-0.00074078,-0.00001938,-0.00000
 100,0.00030616,-0.00020488,-0.00181434,0.00061776,-0.00016489,-0.33633
 694,0.20241112,0.03471186,0.36792653,-0.02838832,0.00985235,0.00057461
 ,-0.00064765,0.00022482,-0.00072531,-0.00091849,-0.00011219,0.00017594
 ,-0.00138658,-0.00285090,-0.00143042,-0.00007679,0.00056225,0.00048913
 ,-0.00007320,0.00019540,0.00006956,-0.00139794,0.00057533,0.00049948,0
 .25520278,-0.21289756,-0.04465691,-0.22231381,0.20445050,-0.01284753,0
 .00549375,-0.00133462,-0.00041180,0.00088173,0.00078008,0.00079595,-0.
 00079816,0.00030637,-0.00108653,-0.00248092,-0.00020970,-0.00004366,0.
 00032108,0.00021958,0.00026440,0.00036614,0.00003945,-0.00071391,0.000
 55508,0.00027346,0.05232409,-0.04934262,-0.01317452,-0.03828101,0.0450
 0392,0.01309991\\-0.00059137,-0.00076991,0.00248584,-0.00003800,0.0000
 1830,-0.00002477,0.00002342,-0.00002884,-0.00000516,0.00063660,0.00095
 963,0.00257070,0.00000260,-0.00003424,-0.00002279,-0.00003620,0.000025
 58,-0.00000220,-0.00038433,-0.00059104,-0.00253937,0.00037464,0.000426
 07,-0.00246082,0.00001265,-0.00000555,-0.00000143\\\@
 The archive entry for this job was punched.


      LET US REMEMBER, PLEASE, THAT THE SEARCH FOR THE CONSTITUTION
      OF THE WORLD IS ONE OF THE GREATEST AND NOBLEST PROBLEMS PRESENTED 
      BY NATURE.

                                                  -- GALILEO
 Job cpu time:       0 days  0 hours  6 minutes 46.4 seconds.
 Elapsed time:       0 days  0 hours  0 minutes 51.9 seconds.
 File lengths (MBytes):  RWF=     21 Int=      0 D2E=      0 Chk=      2 Scr=      1
 Normal termination of Gaussian 16 at Thu Dec  5 18:23:56 2024.
