 Entering Gaussian System, Link 0=g16
 Input=rotation_std28.gjf
 Output=rotation_std28.log
 Initial command:
 /share/apps/gaussian/g16/l1.exe "/scratch/jingdan2/247456/Gau-189316.inp" -scrdir="/scratch/jingdan2/247456/"
 Entering Link 1 = /share/apps/gaussian/g16/l1.exe PID=    189318.
  
 Copyright (c) 1988-2019, Gaussian, Inc.  All Rights Reserved.
  
 This is part of the Gaussian(R) 16 program.  It is based on
 the Gaussian(R) 09 system (copyright 2009, Gaussian, Inc.),
 the Gaussian(R) 03 system (copyright 2003, Gaussian, Inc.),
 the Gaussian(R) 98 system (copyright 1998, Gaussian, Inc.),
 the Gaussian(R) 94 system (copyright 1995, Gaussian, Inc.),
 the Gaussian 92(TM) system (copyright 1992, Gaussian, Inc.),
 the Gaussian 90(TM) system (copyright 1990, Gaussian, Inc.),
 the Gaussian 88(TM) system (copyright 1988, Gaussian, Inc.),
 the Gaussian 86(TM) system (copyright 1986, Carnegie Mellon
 University), and the Gaussian 82(TM) system (copyright 1983,
 Carnegie Mellon University). Gaussian is a federally registered
 trademark of Gaussian, Inc.
  
 This software contains proprietary and confidential information,
 including trade secrets, belonging to Gaussian, Inc.
  
 This software is provided under written license and may be
 used, copied, transmitted, or stored only in accord with that
 written license.
  
 The following legend is applicable only to US Government
 contracts under FAR:
  
                    RESTRICTED RIGHTS LEGEND
  
 Use, reproduction and disclosure by the US Government is
 subject to restrictions as set forth in subparagraphs (a)
 and (c) of the Commercial Computer Software - Restricted
 Rights clause in FAR 52.227-19.
  
 Gaussian, Inc.
 340 Quinnipiac St., Bldg. 40, Wallingford CT 06492
  
  
 ---------------------------------------------------------------
 Warning -- This program may not be used in any manner that
 competes with the business of Gaussian, Inc. or will provide
 assistance to any competitor of Gaussian, Inc.  The licensee
 of this program is prohibited from giving any competitor of
 Gaussian, Inc. access to this program.  By using this program,
 the user acknowledges that Gaussian, Inc. is engaged in the
 business of creating and licensing software in the field of
 computational chemistry and represents and warrants to the
 licensee that it is not a competitor of Gaussian, Inc. and that
 it will not use this program in any manner prohibited above.
 ---------------------------------------------------------------
  

 Cite this work as:
 Gaussian 16, Revision C.01,
 M. J. Frisch, G. W. Trucks, H. B. Schlegel, G. E. Scuseria, 
 M. A. Robb, J. R. Cheeseman, G. Scalmani, V. Barone, 
 G. A. Petersson, H. Nakatsuji, X. Li, M. Caricato, A. V. Marenich, 
 J. Bloino, B. G. Janesko, R. Gomperts, B. Mennucci, H. P. Hratchian, 
 J. V. Ortiz, A. F. Izmaylov, J. L. Sonnenberg, D. Williams-Young, 
 F. Ding, F. Lipparini, F. Egidi, J. Goings, B. Peng, A. Petrone, 
 T. Henderson, D. Ranasinghe, V. G. Zakrzewski, J. Gao, N. Rega, 
 G. Zheng, W. Liang, M. Hada, M. Ehara, K. Toyota, R. Fukuda, 
 J. Hasegawa, M. Ishida, T. Nakajima, Y. Honda, O. Kitao, H. Nakai, 
 T. Vreven, K. Throssell, J. A. Montgomery, Jr., J. E. Peralta, 
 F. Ogliaro, M. J. Bearpark, J. J. Heyd, E. N. Brothers, K. N. Kudin, 
 V. N. Staroverov, T. A. Keith, R. Kobayashi, J. Normand, 
 K. Raghavachari, A. P. Rendell, J. C. Burant, S. S. Iyengar, 
 J. Tomasi, M. Cossi, J. M. Millam, M. Klene, C. Adamo, R. Cammi, 
 J. W. Ochterski, R. L. Martin, K. Morokuma, O. Farkas, 
 J. B. Foresman, and D. J. Fox, Gaussian, Inc., Wallingford CT, 2019.
 
 ******************************************
 Gaussian 16:  ES64L-G16RevC.01  3-Jul-2019
                 5-Dec-2024 
 ******************************************
 %nprocshared=8
 Will use up to    8 processors via shared memory.
 %mem=8GB
 -------------------------
 # freq b3lyp/6-31g(2df,p)
 -------------------------
 1/10=4,30=1,38=1/1,3;
 2/12=2,17=6,18=5,40=1/2;
 3/5=1,6=6,7=104,11=2,25=1,30=1,71=2,74=-5,140=1/1,2,3;
 4//1;
 5/5=2,38=5,98=1/2;
 8/6=4,10=90,11=11/1;
 11/6=1,8=1,9=11,15=111,16=1/1,2,10;
 10/6=1/2;
 6/7=2,8=2,9=2,10=2,28=1/1;
 7/8=1,10=1,25=1/1,2,3,16;
 1/10=4,30=1/3;
 99//99;
 -------------------------------------------------------------------
 energy: -15.614184499692 gnorm: 0.000439253721 xtb: 6.6.1 (8d0f1dd)
 -------------------------------------------------------------------
 Symbolic Z-matrix:
 Charge =  0 Multiplicity = 1
 C                    -0.63678   0.47325  -0.35721 
 H                    -1.04337   1.49566  -0.28814 
 H                    -0.4501    0.2561   -1.41885 
 C                     0.69381   0.42824   0.37411 
 H                     0.52531   0.16424   1.4245 
 H                     1.1854    1.40783   0.32338 
 F                     1.54016  -0.49877  -0.19822 
 O                    -1.51563  -0.46199   0.24411 
 H                    -2.29578  -0.548    -0.31118 
 

 GradGradGradGradGradGradGradGradGradGradGradGradGradGradGradGradGradGrad
 Berny optimization.
 Initialization pass.
 Trust Radius=3.00D-01 FncErr=1.00D-07 GrdErr=1.00D-07 EigMax=2.50D+02 EigMin=1.00D-04
 Number of steps in this run=      2 maximum allowed number of steps=      2.
 GradGradGradGradGradGradGradGradGradGradGradGradGradGradGradGradGradGrad

                          Input orientation:                          
 ---------------------------------------------------------------------
 Center     Atomic      Atomic             Coordinates (Angstroms)
 Number     Number       Type             X           Y           Z
 ---------------------------------------------------------------------
      1          6           0       -0.636783    0.473250   -0.357205
      2          1           0       -1.043370    1.495663   -0.288136
      3          1           0       -0.450103    0.256095   -1.418854
      4          6           0        0.693810    0.428244    0.374108
      5          1           0        0.525308    0.164244    1.424499
      6          1           0        1.185396    1.407830    0.323375
      7          9           0        1.540156   -0.498766   -0.198221
      8          8           0       -1.515627   -0.461988    0.244108
      9          1           0       -2.295781   -0.548001   -0.311180
 ---------------------------------------------------------------------
                    Distance matrix (angstroms):
                    1          2          3          4          5
     1  C    0.000000
     2  H    1.102457   0.000000
     3  H    1.099593   1.779612   0.000000
     4  C    1.518987   2.143769   2.133749   0.000000
     5  H    2.149514   2.677041   3.007411   1.096089   0.000000
     6  H    2.158000   2.312803   2.652680   1.097187   1.787371
     7  F    2.389384   3.265033   2.453750   1.379569   2.025517
     8  O    1.417256   2.082957   2.101530   2.385587   2.439448
     9  H    1.948678   2.397004   2.297834   3.218746   3.387981
                    6          7          8          9
     6  H    0.000000
     7  F    2.008239   0.000000
     8  O    3.286035   3.087850   0.000000
     9  H    4.043084   3.837916   0.961449   0.000000
 Stoichiometry    C2H5FO
 Framework group  C1[X(C2H5FO)]
 Deg. of freedom    21
 Full point group                 C1      NOp   1
 Largest Abelian subgroup         C1      NOp   1
 Largest concise Abelian subgroup C1      NOp   1
                         Standard orientation:                         
 ---------------------------------------------------------------------
 Center     Atomic      Atomic             Coordinates (Angstroms)
 Number     Number       Type             X           Y           Z
 ---------------------------------------------------------------------
      1          6           0       -0.636783    0.473250   -0.357205
      2          1           0       -1.043370    1.495663   -0.288136
      3          1           0       -0.450103    0.256095   -1.418854
      4          6           0        0.693810    0.428244    0.374108
      5          1           0        0.525308    0.164244    1.424499
      6          1           0        1.185396    1.407830    0.323375
      7          9           0        1.540156   -0.498766   -0.198221
      8          8           0       -1.515627   -0.461988    0.244108
      9          1           0       -2.295781   -0.548001   -0.311180
 ---------------------------------------------------------------------
 Rotational constants (GHZ):          18.9743127           4.5998172           4.2767405
 Standard basis: 6-31G(2df,p) (6D, 7F)
 There are   149 symmetry adapted cartesian basis functions of A   symmetry.
 There are   137 symmetry adapted basis functions of A   symmetry.
   137 basis functions,   211 primitive gaussians,   149 cartesian basis functions
    17 alpha electrons       17 beta electrons
       nuclear repulsion energy       129.1848899760 Hartrees.
 NAtoms=    9 NActive=    9 NUniq=    9 SFac= 1.00D+00 NAtFMM=   60 NAOKFM=F Big=F
 Integral buffers will be    131072 words long.
 Raffenetti 2 integral format.
 Two-electron integral symmetry is turned on.
 One-electron integrals computed using PRISM.
 NBasis=   137 RedAO= T EigKep=  1.20D-03  NBF=   137
 NBsUse=   137 1.00D-06 EigRej= -1.00D+00 NBFU=   137
 ExpMin= 1.61D-01 ExpMax= 7.00D+03 ExpMxC= 1.05D+03 IAcc=3 IRadAn=         5 AccDes= 0.00D+00
 Harris functional with IExCor=  402 and IRadAn=       5 diagonalized for initial guess.
 HarFok:  IExCor=  402 AccDes= 0.00D+00 IRadAn=         5 IDoV= 1 UseB2=F ITyADJ=14
 ICtDFT=  3500011 ScaDFX=  1.000000  1.000000  1.000000  1.000000
 FoFCou: FMM=F IPFlag=           0 FMFlag=      100000 FMFlg1=           0
         NFxFlg=           0 DoJE=T BraDBF=F KetDBF=T FulRan=T
         wScrn=  0.000000 ICntrl=       500 IOpCl=  0 I1Cent=   200000004 NGrid=           0
         NMat0=    1 NMatS0=      1 NMatT0=    0 NMatD0=    1 NMtDS0=    0 NMtDT0=    0
 Petite list used in FoFCou.
 Keep R1 ints in memory in canonical form, NReq=52495207.
 Requested convergence on RMS density matrix=1.00D-08 within 128 cycles.
 Requested convergence on MAX density matrix=1.00D-06.
 Requested convergence on             energy=1.00D-06.
 No special actions if energy rises.
 Integral accuracy reduced to 1.0D-05 until final iterations.
 Initial convergence to 1.0D-05 achieved.  Increase integral accuracy.
 SCF Done:  E(RB3LYP) =  -254.279790444     A.U. after   12 cycles
            NFock= 12  Conv=0.30D-08     -V/T= 2.0063
 DoSCS=F DFT=T ScalE2(SS,OS)=  1.000000  1.000000
 Range of M.O.s used for correlation:     1   137
 NBasis=   137 NAE=    17 NBE=    17 NFC=     0 NFV=     0
 NROrb=    137 NOA=    17 NOB=    17 NVA=   120 NVB=   120

 **** Warning!!: The largest alpha MO coefficient is  0.18637593D+02

 Symmetrizing basis deriv contribution to polar:
 IMax=3 JMax=2 DiffMx= 0.00D+00
 G2DrvN: will do    10 centers at a time, making    1 passes.
 Calling FoFCou, ICntrl=  3107 FMM=F I1Cent=   0 AccDes= 0.00D+00.
 End of G2Drv F.D. properties file   721 does not exist.
 End of G2Drv F.D. properties file   722 does not exist.
 End of G2Drv F.D. properties file   788 does not exist.
          IDoAtm=111111111
          Differentiating once with respect to electric field.
                with respect to dipole field.
          Differentiating once with respect to nuclear coordinates.
 Keep R1 ints in memory in canonical form, NReq=52475930.
          There are    30 degrees of freedom in the 1st order CPHF.  IDoFFX=6 NUNeed=     3.
     27 vectors produced by pass  0 Test12= 6.80D-15 3.33D-09 XBig12= 1.50D+01 1.47D+00.
 AX will form    27 AO Fock derivatives at one time.
     27 vectors produced by pass  1 Test12= 6.80D-15 3.33D-09 XBig12= 1.03D+00 1.93D-01.
     27 vectors produced by pass  2 Test12= 6.80D-15 3.33D-09 XBig12= 1.51D-02 2.89D-02.
     27 vectors produced by pass  3 Test12= 6.80D-15 3.33D-09 XBig12= 4.77D-05 9.06D-04.
     27 vectors produced by pass  4 Test12= 6.80D-15 3.33D-09 XBig12= 7.16D-08 3.92D-05.
     14 vectors produced by pass  5 Test12= 6.80D-15 3.33D-09 XBig12= 6.13D-11 1.19D-06.
      3 vectors produced by pass  6 Test12= 6.80D-15 3.33D-09 XBig12= 5.84D-14 4.15D-08.
 InvSVY:  IOpt=1 It=  1 EMax= 3.11D-15
 Solved reduced A of dimension   152 with    30 vectors.
 Isotropic polarizability for W=    0.000000       28.52 Bohr**3.
 End of Minotr F.D. properties file   721 does not exist.
 End of Minotr F.D. properties file   722 does not exist.
 End of Minotr F.D. properties file   788 does not exist.

 **********************************************************************

            Population analysis using the SCF Density.

 **********************************************************************

 Orbital symmetries:
       Occupied  (A) (A) (A) (A) (A) (A) (A) (A) (A) (A) (A) (A)
                 (A) (A) (A) (A) (A)
       Virtual   (A) (A) (A) (A) (A) (A) (A) (A) (A) (A) (A) (A)
                 (A) (A) (A) (A) (A) (A) (A) (A) (A) (A) (A) (A)
                 (A) (A) (A) (A) (A) (A) (A) (A) (A) (A) (A) (A)
                 (A) (A) (A) (A) (A) (A) (A) (A) (A) (A) (A) (A)
                 (A) (A) (A) (A) (A) (A) (A) (A) (A) (A) (A) (A)
                 (A) (A) (A) (A) (A) (A) (A) (A) (A) (A) (A) (A)
                 (A) (A) (A) (A) (A) (A) (A) (A) (A) (A) (A) (A)
                 (A) (A) (A) (A) (A) (A) (A) (A) (A) (A) (A) (A)
                 (A) (A) (A) (A) (A) (A) (A) (A) (A) (A) (A) (A)
                 (A) (A) (A) (A) (A) (A) (A) (A) (A) (A) (A) (A)
 The electronic state is 1-A.
 Alpha  occ. eigenvalues --  -24.66217 -19.14043 -10.25160 -10.23525  -1.17739
 Alpha  occ. eigenvalues --   -1.02209  -0.74980  -0.61939  -0.53164  -0.49725
 Alpha  occ. eigenvalues --   -0.45651  -0.45331  -0.42260  -0.36372  -0.33007
 Alpha  occ. eigenvalues --   -0.32029  -0.27441
 Alpha virt. eigenvalues --    0.07209   0.10929   0.12789   0.14826   0.16797
 Alpha virt. eigenvalues --    0.18910   0.21483   0.22538   0.44275   0.45326
 Alpha virt. eigenvalues --    0.49679   0.50564   0.58161   0.60970   0.66860
 Alpha virt. eigenvalues --    0.68774   0.69349   0.73112   0.76079   0.79625
 Alpha virt. eigenvalues --    0.79868   0.82530   0.86969   0.89097   0.91641
 Alpha virt. eigenvalues --    0.95915   0.96395   1.00670   1.04131   1.05248
 Alpha virt. eigenvalues --    1.09424   1.11230   1.24343   1.28468   1.31180
 Alpha virt. eigenvalues --    1.35881   1.40395   1.43996   1.49677   1.57532
 Alpha virt. eigenvalues --    1.60308   1.61474   1.69743   1.70033   1.75531
 Alpha virt. eigenvalues --    1.89911   1.96816   2.07187   2.11303   2.22387
 Alpha virt. eigenvalues --    2.30501   2.39306   2.45188   2.51548   2.52681
 Alpha virt. eigenvalues --    2.58570   2.61417   2.69368   2.75808   2.81725
 Alpha virt. eigenvalues --    2.87650   2.92653   2.93610   3.00090   3.07414
 Alpha virt. eigenvalues --    3.21228   3.25795   3.33739   3.34280   3.38484
 Alpha virt. eigenvalues --    3.41148   3.50756   3.56053   3.60630   3.64765
 Alpha virt. eigenvalues --    3.88738   3.91809   4.04269   4.12422   4.14196
 Alpha virt. eigenvalues --    4.19748   4.23476   4.32523   4.40254   4.41729
 Alpha virt. eigenvalues --    4.46065   4.46530   4.49803   4.51332   4.61231
 Alpha virt. eigenvalues --    4.64975   4.65362   4.68792   4.69176   4.72429
 Alpha virt. eigenvalues --    4.79388   4.81708   4.86169   4.94784   5.22610
 Alpha virt. eigenvalues --    5.32313   5.41204   5.47130   5.53772   5.79276
 Alpha virt. eigenvalues --    5.93090   5.99558   6.04781   6.67308   6.67975
 Alpha virt. eigenvalues --    6.79406   6.80131   7.04556   7.24987   7.31247
 Alpha virt. eigenvalues --    7.33308   9.55527  10.97604  11.86949  13.16011
          Condensed to atoms (all electrons):
               1          2          3          4          5          6
     1  C    4.828266   0.333480   0.354119   0.372523  -0.041221  -0.039725
     2  H    0.333480   0.687342  -0.050623  -0.027690   0.002699   0.001308
     3  H    0.354119  -0.050623   0.647365  -0.030110   0.007064   0.001319
     4  C    0.372523  -0.027690  -0.030110   4.669661   0.348676   0.345250
     5  H   -0.041221   0.002699   0.007064   0.348676   0.634153  -0.047341
     6  H   -0.039725   0.001308   0.001319   0.345250  -0.047341   0.665747
     7  F   -0.033800   0.001950   0.002041   0.385175  -0.023193  -0.024493
     8  O    0.355990  -0.033472  -0.030623  -0.031904   0.002137   0.002095
     9  H   -0.048515  -0.002104  -0.006244   0.005843  -0.000261  -0.000337
               7          8          9
     1  C   -0.033800   0.355990  -0.048515
     2  H    0.001950  -0.033472  -0.002104
     3  H    0.002041  -0.030623  -0.006244
     4  C    0.385175  -0.031904   0.005843
     5  H   -0.023193   0.002137  -0.000261
     6  H   -0.024493   0.002095  -0.000337
     7  F    8.853027  -0.000183  -0.000084
     8  O   -0.000183   7.848185   0.305034
     9  H   -0.000084   0.305034   0.456692
 Mulliken charges:
               1
     1  C   -0.081117
     2  H    0.087111
     3  H    0.105691
     4  C   -0.037425
     5  H    0.117286
     6  H    0.096178
     7  F   -0.160441
     8  O   -0.417260
     9  H    0.289976
 Sum of Mulliken charges =  -0.00000
 Mulliken charges with hydrogens summed into heavy atoms:
               1
     1  C    0.111686
     4  C    0.176039
     7  F   -0.160441
     8  O   -0.127284
 APT charges:
               1
     1  C    0.454838
     2  H   -0.082703
     3  H   -0.060359
     4  C    0.561233
     5  H   -0.029382
     6  H   -0.054224
     7  F   -0.464326
     8  O   -0.563736
     9  H    0.238659
 Sum of APT charges =   0.00000
 APT charges with hydrogens summed into heavy atoms:
               1
     1  C    0.311776
     4  C    0.477626
     7  F   -0.464326
     8  O   -0.325077
 Electronic spatial extent (au):  <R**2>=            304.9895
 Charge=             -0.0000 electrons
 Dipole moment (field-independent basis, Debye):
    X=             -1.4719    Y=              1.5947    Z=             -0.7112  Tot=              2.2837
 Quadrupole moment (field-independent basis, Debye-Ang):
   XX=            -22.4283   YY=            -23.6438   ZZ=            -22.8592
   XY=              1.4045   XZ=              3.2794   YZ=              0.5537
 Traceless Quadrupole moment (field-independent basis, Debye-Ang):
   XX=              0.5488   YY=             -0.6667   ZZ=              0.1179
   XY=              1.4045   XZ=              3.2794   YZ=              0.5537
 Octapole moment (field-independent basis, Debye-Ang**2):
  XXX=            -10.6096  YYY=             -4.6027  ZZZ=             -0.7905  XYY=              1.4783
  XXY=             -2.2468  XXZ=             -4.5865  XZZ=              1.9480  YZZ=             -2.2041
  YYZ=             -0.4454  XYZ=             -1.3260
 Hexadecapole moment (field-independent basis, Debye-Ang**3):
 XXXX=           -187.5814 YYYY=            -65.3940 ZZZZ=            -47.5828 XXXY=              8.3293
 XXXZ=              8.2599 YYYX=             -2.0241 YYYZ=              1.0594 ZZZX=             -1.9965
 ZZZY=              0.7664 XXYY=            -45.1187 XXZZ=            -44.7099 YYZZ=            -19.9880
 XXYZ=              2.5047 YYXZ=             -0.5202 ZZXY=             -0.6818
 N-N= 1.291848899760D+02 E-N=-8.581161907100D+02  KE= 2.526786191219D+02
  Exact polarizability:      31.131       1.567      27.440       1.071      -0.194      26.985
 Approx polarizability:      38.772       1.075      37.837      -0.003      -0.359      37.114
 Calling FoFJK, ICntrl=    100127 FMM=F ISym2X=0 I1Cent= 0 IOpClX= 0 NMat=1 NMatS=1 NMatT=0.
 Full mass-weighted force constant matrix:
 Low frequencies ---  -29.2782   -3.1942    0.0005    0.0010    0.0012   21.8280
 Low frequencies ---   85.5652  237.9620  352.0315
 Diagonal vibrational polarizability:
       14.5088176      41.7237466      15.3281391
 Harmonic frequencies (cm**-1), IR intensities (KM/Mole), Raman scattering
 activities (A**4/AMU), depolarization ratios for plane and unpolarized
 incident light, reduced masses (AMU), force constants (mDyne/A),
 and normal coordinates:
                      1                      2                      3
                      A                      A                      A
 Frequencies --     85.5062               237.9608               352.0279
 Red. masses --      3.2371                 1.0990                 2.9517
 Frc consts  --      0.0139                 0.0367                 0.2155
 IR Inten    --      2.0763               114.6922                 3.3902
  Atom  AN      X      Y      Z        X      Y      Z        X      Y      Z
     1   6     0.02  -0.14  -0.07    -0.01  -0.01  -0.01     0.09   0.00  -0.13
     2   1     0.13  -0.08  -0.38    -0.02  -0.02   0.05    -0.03  -0.03  -0.45
     3   1     0.11  -0.44   0.00    -0.03   0.05  -0.03     0.30  -0.28  -0.04
     4   6    -0.04  -0.15   0.07    -0.01   0.00  -0.02    -0.09  -0.01   0.13
     5   1    -0.13  -0.44  -0.02    -0.01   0.04  -0.01    -0.31  -0.30   0.01
     6   1    -0.15  -0.08   0.39    -0.02   0.01  -0.05     0.03  -0.05   0.48
     7   9     0.17   0.12  -0.07     0.02   0.00   0.02    -0.19   0.02  -0.05
     8   8    -0.17   0.13   0.08     0.03  -0.05  -0.04     0.22   0.01   0.05
     9   1    -0.19   0.20   0.08    -0.44   0.74   0.50     0.06   0.02   0.26
                      4                      5                      6
                      A                      A                      A
 Frequencies --    470.9073               871.7242               946.0229
 Red. masses --      2.3766                 2.4393                 2.1366
 Frc consts  --      0.3105                 1.0921                 1.1266
 IR Inten    --     15.7229                16.4341                56.0240
  Atom  AN      X      Y      Z        X      Y      Z        X      Y      Z
     1   6    -0.12   0.13  -0.10    -0.14   0.15  -0.06     0.15  -0.04  -0.07
     2   1    -0.06   0.13   0.24    -0.44   0.05  -0.48     0.20  -0.06   0.35
     3   1    -0.43   0.34  -0.20     0.05  -0.21   0.05    -0.35   0.17  -0.19
     4   6    -0.11  -0.11  -0.11     0.13   0.14   0.08     0.14   0.06  -0.09
     5   1    -0.42  -0.30  -0.20     0.01  -0.18  -0.02    -0.40  -0.20  -0.22
     6   1    -0.07  -0.12   0.23     0.41   0.01   0.41     0.28   0.02   0.44
     7   9     0.11  -0.03   0.07     0.07  -0.09  -0.02    -0.08   0.05   0.04
     8   8     0.10   0.03   0.06    -0.07  -0.09   0.01    -0.10  -0.07   0.06
     9   1     0.05  -0.25   0.18    -0.13  -0.10   0.09     0.02   0.11  -0.14
                      7                      8                      9
                      A                      A                      A
 Frequencies --   1061.8255              1112.9603              1116.5476
 Red. masses --      2.0674                 3.3545                 2.8897
 Frc consts  --      1.3733                 2.4481                 2.1226
 IR Inten    --     35.1262                48.5164                27.3889
  Atom  AN      X      Y      Z        X      Y      Z        X      Y      Z
     1   6     0.07   0.05   0.17     0.02  -0.18  -0.05     0.19   0.18  -0.12
     2   1    -0.04   0.02  -0.22    -0.08  -0.24   0.50     0.21   0.16   0.01
     3   1     0.24  -0.30   0.27    -0.16   0.39  -0.19     0.55   0.33  -0.08
     4   6    -0.14   0.09  -0.15    -0.13   0.25   0.17    -0.14  -0.03   0.06
     5   1    -0.41  -0.17  -0.26    -0.35   0.18   0.11    -0.07   0.34   0.15
     6   1    -0.08   0.05   0.18    -0.14   0.24   0.20    -0.12  -0.06  -0.35
     7   9     0.05  -0.05  -0.01     0.09  -0.14  -0.10     0.04  -0.02  -0.04
     8   8     0.00  -0.04   0.02     0.02   0.07  -0.01    -0.12  -0.13   0.11
     9   1     0.22   0.38  -0.36     0.02   0.01   0.01    -0.15  -0.17   0.14
                     10                     11                     12
                      A                      A                      A
 Frequencies --   1237.3237              1277.8429              1310.8408
 Red. masses --      1.1603                 1.1287                 1.1013
 Frc consts  --      1.0467                 1.0859                 1.1149
 IR Inten    --     13.3910                47.0454                10.7867
  Atom  AN      X      Y      Z        X      Y      Z        X      Y      Z
     1   6     0.01  -0.03   0.02    -0.01  -0.00   0.06    -0.02  -0.04   0.03
     2   1    -0.15  -0.11   0.10     0.60   0.26  -0.02    -0.32  -0.18   0.10
     3   1     0.57   0.29   0.03    -0.06  -0.23   0.12     0.36   0.12   0.06
     4   6     0.02   0.04  -0.08     0.00   0.04  -0.01     0.01  -0.04  -0.02
     5   1     0.23  -0.39  -0.17    -0.27   0.09  -0.04    -0.46   0.27  -0.00
     6   1    -0.22   0.17   0.16     0.09  -0.00   0.06     0.53  -0.32  -0.12
     7   9    -0.01  -0.01   0.03     0.00  -0.01  -0.01     0.00   0.03  -0.01
     8   8    -0.02   0.03  -0.01    -0.00  -0.00  -0.06     0.00   0.03  -0.01
     9   1    -0.18  -0.28   0.28    -0.26  -0.42   0.39    -0.05  -0.08   0.08
                     13                     14                     15
                      A                      A                      A
 Frequencies --   1415.1920              1465.0957              1501.3714
 Red. masses --      1.2612                 1.4938                 1.0926
 Frc consts  --      1.4882                 1.8891                 1.4510
 IR Inten    --      9.5677                 4.0868                 4.1487
  Atom  AN      X      Y      Z        X      Y      Z        X      Y      Z
     1   6    -0.06  -0.04  -0.04     0.16   0.01   0.07    -0.02   0.00   0.00
     2   1     0.37   0.12   0.13    -0.40  -0.19  -0.28    -0.02  -0.00  -0.02
     3   1     0.17   0.06  -0.02    -0.54   0.06  -0.06     0.09   0.03   0.01
     4   6    -0.11   0.05  -0.03    -0.10   0.01  -0.03     0.01  -0.06  -0.06
     5   1     0.53  -0.08   0.04     0.34   0.02   0.04     0.10   0.67   0.15
     6   1     0.57  -0.28   0.21     0.24  -0.16   0.12    -0.19   0.11   0.68
     7   9     0.01   0.01   0.01     0.01   0.00   0.01     0.00  -0.01  -0.01
     8   8     0.01  -0.01   0.02    -0.02   0.02  -0.04     0.00   0.00   0.00
     9   1     0.09   0.12  -0.12    -0.19  -0.27   0.26     0.01   0.01  -0.01
                     16                     17                     18
                      A                      A                      A
 Frequencies --   1505.7712              2966.6630              3018.3808
 Red. masses --      1.0955                 1.0635                 1.0857
 Frc consts  --      1.4634                 5.5146                 5.8280
 IR Inten    --      6.0722                48.6588                18.1910
  Atom  AN      X      Y      Z        X      Y      Z        X      Y      Z
     1   6    -0.03  -0.06   0.05     0.03  -0.06   0.02     0.02  -0.03  -0.07
     2   1     0.21   0.12  -0.66    -0.35   0.85   0.08    -0.10   0.22   0.01
     3   1    -0.04   0.68  -0.13     0.07  -0.09  -0.33    -0.13   0.18   0.82
     4   6     0.02  -0.00   0.00     0.00   0.01   0.00     0.01   0.02   0.02
     5   1    -0.11   0.01  -0.01     0.01   0.01  -0.03     0.05   0.08  -0.30
     6   1     0.00   0.00  -0.03    -0.06  -0.12   0.01    -0.16  -0.31   0.02
     7   9    -0.00   0.00  -0.00    -0.00   0.00   0.00    -0.00   0.00   0.00
     8   8     0.00  -0.01   0.02    -0.00  -0.00   0.00     0.00   0.00   0.00
     9   1     0.04   0.07  -0.06    -0.00  -0.00   0.00    -0.00   0.01  -0.00
                     19                     20                     21
                      A                      A                      A
 Frequencies --   3030.6738              3081.5476              3834.0117
 Red. masses --      1.0690                 1.1066                 1.0664
 Frc consts  --      5.7849                 6.1915                 9.2355
 IR Inten    --     64.0513                36.5645                22.6979
  Atom  AN      X      Y      Z        X      Y      Z        X      Y      Z
     1   6     0.01  -0.03  -0.03     0.00   0.00  -0.01    -0.00   0.00  -0.00
     2   1    -0.11   0.24   0.01     0.01  -0.02  -0.00     0.00   0.00  -0.00
     3   1    -0.06   0.08   0.38    -0.01   0.02   0.08     0.00   0.00   0.00
     4   6    -0.02  -0.04  -0.03     0.03   0.06  -0.07     0.00  -0.00  -0.00
     5   1    -0.08  -0.13   0.45    -0.11  -0.21   0.79     0.00  -0.00   0.00
     6   1     0.34   0.66  -0.05    -0.26  -0.49   0.02    -0.00   0.00   0.00
     7   9     0.00  -0.00  -0.00    -0.00  -0.00   0.00     0.00  -0.00   0.00
     8   8     0.00   0.00   0.00     0.00  -0.00   0.00    -0.05  -0.01  -0.03
     9   1    -0.00   0.00  -0.00    -0.00  -0.00  -0.00     0.81   0.10   0.57

 -------------------
 - Thermochemistry -
 -------------------
 Temperature   298.150 Kelvin.  Pressure   1.00000 Atm.
 Atom     1 has atomic number  6 and mass  12.00000
 Atom     2 has atomic number  1 and mass   1.00783
 Atom     3 has atomic number  1 and mass   1.00783
 Atom     4 has atomic number  6 and mass  12.00000
 Atom     5 has atomic number  1 and mass   1.00783
 Atom     6 has atomic number  1 and mass   1.00783
 Atom     7 has atomic number  9 and mass  18.99840
 Atom     8 has atomic number  8 and mass  15.99491
 Atom     9 has atomic number  1 and mass   1.00783
 Molecular mass:    64.03244 amu.
 Principal axes and moments of inertia in atomic units:
                           1         2         3
     Eigenvalues --    95.11497 392.35064 421.98988
           X            0.99917   0.02289   0.03364
           Y           -0.02301   0.99973   0.00318
           Z           -0.03356  -0.00396   0.99943
 This molecule is an asymmetric top.
 Rotational symmetry number  1.
 Rotational temperatures (Kelvin)      0.91062     0.22076     0.20525
 Rotational constants (GHZ):          18.97431     4.59982     4.27674
 Zero-point vibrational energy     190805.6 (Joules/Mol)
                                   45.60362 (Kcal/Mol)
 Warning -- explicit consideration of   4 degrees of freedom as
           vibrations may cause significant error
 Vibrational temperatures:    123.02   342.37   506.49   677.53  1254.22
          (Kelvin)           1361.12  1527.73  1601.30  1606.46  1780.23
                             1838.53  1886.01  2036.15  2107.95  2160.14
                             2166.47  4268.37  4342.78  4360.46  4433.66
                             5516.29
 
 Zero-point correction=                           0.072674 (Hartree/Particle)
 Thermal correction to Energy=                    0.077620
 Thermal correction to Enthalpy=                  0.078564
 Thermal correction to Gibbs Free Energy=         0.044955
 Sum of electronic and zero-point Energies=           -254.207116
 Sum of electronic and thermal Energies=              -254.202171
 Sum of electronic and thermal Enthalpies=            -254.201227
 Sum of electronic and thermal Free Energies=         -254.234836
 
                     E (Thermal)             CV                S
                      KCal/Mol        Cal/Mol-Kelvin    Cal/Mol-Kelvin
 Total                   48.707             15.236             70.737
 Electronic               0.000              0.000              0.000
 Translational            0.889              2.981             38.389
 Rotational               0.889              2.981             24.269
 Vibrational             46.930              9.274              8.078
 Vibration     1          0.601              1.959              3.760
 Vibration     2          0.656              1.783              1.818
 Vibration     3          0.729              1.571              1.157
 Vibration     4          0.828              1.315              0.735
                       Q            Log10(Q)             Ln(Q)
 Total Bot       0.210070D-20        -20.677635        -47.612014
 Total V=0       0.562410D+13         12.750053         29.358083
 Vib (Bot)       0.232195D-32        -32.634147        -75.142901
 Vib (Bot)    1  0.240640D+01          0.381367          0.878130
 Vib (Bot)    2  0.824767D+00         -0.083669         -0.192655
 Vib (Bot)    3  0.523413D+00         -0.281155         -0.647384
 Vib (Bot)    4  0.357915D+00         -0.446220         -1.027459
 Vib (V=0)       0.621643D+01          0.793541          1.827196
 Vib (V=0)    1  0.295779D+01          0.470968          1.084443
 Vib (V=0)    2  0.146449D+01          0.165686          0.381507
 Vib (V=0)    3  0.122385D+01          0.087729          0.202003
 Vib (V=0)    4  0.111490D+01          0.047236          0.108766
 Electronic      0.100000D+01          0.000000          0.000000
 Translational   0.201397D+08          7.304054         16.818206
 Rotational      0.449219D+05          4.652458         10.712681
 ***** Axes restored to original set *****
 -------------------------------------------------------------------
 Center     Atomic                   Forces (Hartrees/Bohr)
 Number     Number              X              Y              Z
 -------------------------------------------------------------------
      1        6          -0.001487845    0.001883242    0.002733191
      2        1          -0.000045743    0.000019217   -0.000024805
      3        1           0.000049446    0.000012732    0.000013965
      4        6           0.001613011    0.002027163   -0.002764364
      5        1           0.000020485    0.000006977    0.000011106
      6        1           0.000021754   -0.000004208   -0.000011883
      7        9          -0.001120376   -0.001984166    0.001720861
      8        8           0.000958587   -0.001978531   -0.001648700
      9        1          -0.000009321    0.000017572   -0.000029371
 -------------------------------------------------------------------
 Cartesian Forces:  Max     0.002764364 RMS     0.001266332

 GradGradGradGradGradGradGradGradGradGradGradGradGradGradGradGradGradGrad
 Berny optimization.
 Search for a local minimum.
 Step number   1 out of a maximum of    2
 All quantities printed in internal units (Hartrees-Bohrs-Radians)
 Second derivative matrix not updated -- analytic derivatives used.
 ITU=  0
     Eigenvalues ---    0.00098   0.00365   0.01963   0.02761   0.05455
     Eigenvalues ---    0.06615   0.07878   0.08412   0.11074   0.11969
     Eigenvalues ---    0.15344   0.16167   0.20409   0.30050   0.46739
     Eigenvalues ---    0.66433   0.71944   0.75861   0.80013   0.85216
     Eigenvalues ---    1.04276
 Quadratic step=2.238D+00 exceeds max=3.000D-01 adjusted using Lamda=-6.886D-03.
 Angle between NR and scaled steps=  15.24 degrees.
 Angle between quadratic step and forces=  63.53 degrees.
 Linear search not attempted -- first point.
 B after Tr=    -0.004359   -0.021288    0.004619
         Rot=    0.999993    0.001053    0.003157    0.001410 Ang=   0.41 deg.
 Variable       Old X    -DE/DX   Delta X   Delta X   Delta X     New X
                                 (Linear)    (Quad)   (Total)
    X1       -1.20335  -0.00149   0.00000  -0.00769  -0.00526  -1.20860
    Y1        0.89431   0.00188   0.00000   0.03521   0.01593   0.91025
    Z1       -0.67502   0.00273   0.00000   0.01968   0.01471  -0.66031
    X2       -1.97168  -0.00005   0.00000  -0.04948  -0.04299  -2.01468
    Y2        2.82639   0.00002   0.00000   0.01232  -0.00422   2.82217
    Z2       -0.54450  -0.00002   0.00000   0.10608   0.09199  -0.45251
    X3       -0.85057   0.00005   0.00000  -0.01889  -0.00458  -0.85515
    Y3        0.48395   0.00001   0.00000   0.12407   0.09955   0.58350
    Z3       -2.68125   0.00001   0.00000  -0.00252  -0.00461  -2.68586
    X4        1.31111   0.00161   0.00000   0.00773   0.00138   1.31250
    Y4        0.80926   0.00203   0.00000   0.03516   0.01161   0.82087
    Z4        0.70696  -0.00276   0.00000  -0.01979  -0.00863   0.69833
    X5        0.99269   0.00002   0.00000   0.02025   0.00007   0.99276
    Y5        0.31038   0.00001   0.00000   0.12648   0.10805   0.41842
    Z5        2.69191   0.00001   0.00000   0.00673   0.01677   2.70868
    X6        2.24007   0.00002   0.00000   0.05274   0.05271   2.29278
    Y6        2.66041  -0.00000   0.00000   0.00737  -0.01933   2.64108
    Z6        0.61109  -0.00001   0.00000  -0.10994  -0.09644   0.51465
    X7        2.91047  -0.00112   0.00000  -0.06815  -0.07341   2.83706
    Y7       -0.94253  -0.00198   0.00000  -0.07467  -0.10463  -1.04716
    Z7       -0.37458   0.00172   0.00000   0.05166   0.07638  -0.29821
    X8       -2.86412   0.00096   0.00000   0.06270   0.05315  -2.81097
    Y8       -0.87303  -0.00198   0.00000  -0.07359  -0.08613  -0.95916
    Z8        0.46130  -0.00165   0.00000  -0.05273  -0.06384   0.39746
    X9       -4.33840  -0.00001   0.00000   0.02239   0.01892  -4.31947
    Y9       -1.03557   0.00002   0.00000  -0.01042  -0.02082  -1.05639
    Z9       -0.58804  -0.00003   0.00000  -0.00589  -0.02633  -0.61437
         Item               Value     Threshold  Converged?
 Maximum Force            0.002764     0.000450     NO 
 RMS     Force            0.001266     0.000300     NO 
 Maximum Displacement     0.108047     0.001800     NO 
 RMS     Displacement     0.055568     0.001200     NO 
 Predicted change in Energy=-7.499156D-04
 GradGradGradGradGradGradGradGradGradGradGradGradGradGradGradGradGradGrad


 ----------------------------------------------------------------------

 Electric dipole moment (input orientation):
 (Debye = 10**-18 statcoulomb cm , SI units = C m)
                  (au)            (Debye)         (10**-30 SI)
   Tot        0.898489D+00      0.228373D+01      0.761771D+01
   x         -0.579093D+00     -0.147191D+01     -0.490976D+01
   y          0.627414D+00      0.159473D+01      0.531944D+01
   z         -0.279796D+00     -0.711171D+00     -0.237221D+01

 Dipole polarizability, Alpha (input orientation).
 (esu units = cm**3 , SI units = C**2 m**2 J**-1)
 Alpha(0;0):
               (au)            (10**-24 esu)      (10**-40 SI)
   iso        0.285185D+02      0.422601D+01      0.470207D+01
   aniso      0.514101D+01      0.761819D+00      0.847638D+00
   xx         0.311305D+02      0.461307D+01      0.513273D+01
   yx         0.156731D+01      0.232251D+00      0.258415D+00
   yy         0.274399D+02      0.406617D+01      0.452423D+01
   zx         0.107120D+01      0.158735D+00      0.176617D+00
   zy        -0.193663D+00     -0.286979D-01     -0.319307D-01
   zz         0.269852D+02      0.399879D+01      0.444925D+01

 ----------------------------------------------------------------------

 Dipole orientation:
     6         -0.08018593          0.32256534          1.61028233
     1         -0.02618957         -0.71856356          3.41401445
     1          1.31305866          1.86021827          1.72111038
     6          0.71788456         -1.45199019         -0.50008080
     1         -0.95022708         -2.41541226         -1.26135281
     1          2.04968047         -2.86669325          0.22369533
     9          1.90650055         -0.14521481         -2.41737445
     8         -2.55380814          1.20923563          1.09269123
     1         -2.94055245          2.55005566          2.25616149

 Electric dipole moment (dipole orientation):
 (Debye = 10**-18 statcoulomb cm , SI units = C m)
                  (au)            (Debye)         (10**-30 SI)
   Tot        0.898489D+00      0.228373D+01      0.761771D+01
   x          0.000000D+00      0.000000D+00      0.000000D+00
   y          0.000000D+00      0.000000D+00      0.000000D+00
   z          0.898489D+00      0.228373D+01      0.761771D+01

 Dipole polarizability, Alpha (dipole orientation).
 (esu units = cm**3 , SI units = C**2 m**2 J**-1)
 Alpha(0;0):
               (au)            (10**-24 esu)      (10**-40 SI)
   iso        0.285185D+02      0.422601D+01      0.470207D+01
   aniso      0.514101D+01      0.761819D+00      0.847638D+00
   xx         0.288511D+02      0.427529D+01      0.475690D+01
   yx        -0.223344D+01     -0.330962D+00     -0.368245D+00
   yy         0.286722D+02      0.424877D+01      0.472740D+01
   zx        -0.990451D+00     -0.146770D+00     -0.163303D+00
   zy         0.162955D+01      0.241475D+00      0.268677D+00
   zz         0.280323D+02      0.415396D+01      0.462191D+01

 ----------------------------------------------------------------------
 Unable to Open any file for archive entry.
 1\1\GINC-COMPUTE-2-4\Freq\RB3LYP\6-31G(2df,p)\C2H5F1O1\JINGDAN2\05-Dec
 -2024\0\\# freq b3lyp/6-31g(2df,p)\\energy: -15.614184499692 gnorm: 0.
 000439253721 xtb: 6.6.1 (8d0f1dd)\\0,1\C,-0.636783,0.47325,-0.357205\H
 ,-1.04337,1.495663,-0.288136\H,-0.450103,0.256095,-1.418854\C,0.69381,
 0.428244,0.374108\H,0.525308,0.164244,1.424499\H,1.185396,1.40783,0.32
 3375\F,1.540156,-0.498766,-0.198221\O,-1.515627,-0.461988,0.244108\H,-
 2.295781,-0.548001,-0.31118\\Version=ES64L-G16RevC.01\State=1-A\HF=-25
 4.2797904\RMSD=3.021e-09\RMSF=1.266e-03\ZeroPoint=0.072674\Thermal=0.0
 776197\ETot=-254.2021708\HTot=-254.2012266\GTot=-254.2348359\Dipole=-0
 .5790931,0.6274138,-0.2797963\DipoleDeriv=0.4817836,0.2472598,-0.14662
 73,0.1804462,0.5835842,-0.0795048,-0.2377375,-0.0474543,0.2991463,-0.0
 547694,0.0534115,0.0017928,0.0289921,-0.2185339,0.0103978,0.0353096,-0
 .018474,0.025194,-0.0231748,-0.0176515,0.0375067,-0.0412839,0.0024719,
 -0.0515792,0.0556785,-0.0011622,-0.1603727,0.6284951,-0.2524312,-0.101
 834,-0.206259,0.63365,0.1222343,-0.1655192,0.0879522,0.4215534,0.01216
 28,0.019053,0.0241455,0.0259484,0.0158147,0.0627396,0.0262987,0.011311
 5,-0.1161246,-0.0562891,-0.0675299,0.0008454,-0.0572636,-0.1438544,-0.
 0146792,0.028937,0.0248105,0.0374702,-0.5607559,0.2704857,0.0869604,0.
 2919776,-0.5066968,-0.1250241,0.1467226,-0.1572706,-0.3255245,-0.62761
 8,-0.2344882,0.1792498,-0.2265015,-0.672068,0.0327591,0.2038649,0.0679
 99,-0.3915211,0.2001657,-0.0181092,-0.0820393,0.0039437,0.3056323,0.04
 26564,-0.0935545,0.0322879,0.210179\Polar=31.1305119,1.5673108,27.4398
 934,1.0711999,-0.193663,26.9851696\Quadrupole=0.4080346,-0.4956975,0.0
 876629,1.0442096,2.4381821,0.411652\PG=C01 [X(C2H5F1O1)]\NImag=0\\0.49
 517564,-0.03541826,0.53409229,-0.00379741,0.02943342,0.56112320,-0.090
 52419,0.08946318,0.00521784,0.09887023,0.09047118,-0.24023994,-0.02178
 726,-0.08860590,0.27601357,0.00777441,-0.02249485,-0.05684143,-0.01119
 561,0.01531076,0.05278216,-0.05476272,0.00876629,0.03237263,0.00035246
 ,0.00585073,0.01330471,0.06033181,0.00695120,-0.06572420,-0.06171740,0
 .00336955,-0.00606730,-0.02801354,-0.00375146,0.06782163,0.03286034,-0
 .05512838,-0.27404772,-0.00085597,-0.00189523,-0.00163785,-0.04251912,
 0.05536189,0.30313525,-0.15748125,-0.00812525,-0.05499427,-0.00840163,
 0.00023874,-0.00628440,0.00368728,0.00360401,0.00209165,0.49547986,0.0
 0706041,-0.07225760,0.00541884,0.02462146,-0.00272557,0.01401651,-0.00
 543516,0.00057756,-0.00611393,0.05509922,0.55504566,-0.05815307,-0.001
 42939,-0.11689070,0.00675667,-0.00243131,0.00295410,-0.03062649,0.0014
 9919,-0.01909075,-0.02278747,-0.03414803,0.56772678,0.00344123,0.00593
 370,-0.03019886,0.00014964,0.00016744,0.00057500,-0.00508512,-0.000342
 88,-0.00234901,-0.05447112,-0.00941528,0.02958286,0.06107662,-0.003491
 90,0.00262669,0.00062413,-0.00069976,-0.00015403,-0.00041368,0.0007747
 1,0.00014461,-0.00036527,-0.01133208,-0.07375086,0.07558008,0.00427131
 ,0.07434118,0.00085403,0.00709807,-0.01709285,-0.00138237,-0.00008282,
 -0.00064075,-0.00208902,0.00057180,-0.00048049,0.03100284,0.06635041,-
 0.28015885,-0.04084261,-0.06723037,0.30871782,-0.00985254,-0.02348706,
 0.00578874,-0.00031908,0.00011531,0.00066800,0.00012037,0.00039002,-0.
 00112341,-0.10953039,-0.11062521,0.00678073,0.00042067,-0.00302436,-0.
 00138942,0.11826511,0.00099306,0.00029078,0.00239730,-0.00002991,0.001
 65642,-0.00029915,-0.00010300,-0.00015726,0.00020616,-0.10672738,-0.23
 821064,0.01674273,-0.00656335,-0.00525680,0.00123981,0.10680059,0.2730
 7816,-0.00832733,-0.01422802,0.00356189,0.00083738,0.00031945,0.000976
 92,0.00060419,0.00015790,-0.00029285,0.00860025,0.02133389,-0.05768855
 ,0.01438130,0.02637162,0.00043925,-0.01082714,-0.01060795,0.05231510,-
 0.02863007,0.03958834,0.01659524,-0.00778697,-0.00002492,-0.00350177,0
 .00326819,-0.00085455,0.00202422,-0.13542148,0.07890866,0.05192378,-0.
 00893554,0.01300347,0.01109368,0.00799028,0.00538038,-0.00183305,0.169
 16727,0.01425191,-0.01199351,-0.00288380,0.00255319,0.00162379,0.00121
 103,-0.00084212,0.00073709,0.00052635,0.07799469,-0.15932185,-0.057505
 93,0.00514821,0.00176488,-0.00782914,0.03124830,-0.03273933,-0.0228397
 2,-0.13335176,0.19635652,-0.00558207,0.00698998,0.00703981,-0.00325893
 ,0.00072600,-0.00007585,0.00200952,0.00110341,0.00377566,0.05184207,-0
 .05661521,-0.10365188,0.02720507,-0.03344419,-0.01367150,0.00394329,-0
 .00950588,0.00148591,-0.07629004,0.08985858,0.10404644,-0.13452497,-0.
 07725339,0.04697488,0.00621978,-0.00887733,-0.00070882,-0.00961563,-0.
 01128121,0.01043306,-0.03104029,-0.03410257,0.01417098,0.00295319,0.00
 058239,0.00202620,-0.00580487,0.00002552,-0.00292723,0.00005533,0.0024
 2750,-0.00011268,0.51012200,-0.05463130,-0.14112607,0.06527810,-0.0303
 2526,-0.03010160,0.02129135,-0.00568914,0.00127897,0.00640603,-0.00833
 925,-0.00603292,-0.00068633,0.00060465,0.00029784,-0.00021061,-0.00043
 482,0.00104614,0.00013105,-0.00259838,0.00365365,0.00085717,0.15621900
 ,0.19340790,0.01133814,0.04285880,-0.11393359,0.00403126,0.00894470,0.
 00266680,0.02597379,0.03086636,-0.01235509,-0.01078717,-0.01278895,0.0
 0849279,0.00144750,-0.00107558,0.00216508,-0.00443645,-0.00027474,-0.0
 0168257,-0.00005625,-0.00005321,0.00095790,0.18689632,-0.07466119,0.31
 471566,-0.02284113,0.00053246,-0.01795880,0.00143976,0.00066476,-0.000
 63151,0.00170336,0.00191532,-0.00056178,-0.00282098,-0.00611153,0.0023
 5199,0.00045042,-0.00008379,0.00072667,-0.00128956,0.00022409,-0.00050
 838,0.00029299,0.00057010,0.00024376,-0.33836455,-0.05480548,-0.214407
 14,0.36142969,-0.02618630,-0.00566846,-0.01676332,-0.00034654,-0.00000
 534,-0.00060841,0.00042916,0.00138888,0.00100239,-0.00241268,-0.003323
 78,0.00237898,0.00019620,-0.00001350,0.00009284,-0.00098276,0.00029253
 ,-0.00063823,-0.00005123,-0.00008124,0.00003015,-0.02773991,-0.0224239
 0,0.00618380,0.05709408,0.02983481,0.02303295,0.00690038,0.00708140,-0
 .00015029,0.00089571,-0.00018410,0.00096980,0.00017040,0.00099382,0.00
 131651,0.00254647,-0.00169296,0.00019874,-0.00004674,0.00072230,0.0005
 9566,0.00010172,0.00088490,0.00004417,-0.00048416,0.00009351,-0.256752
 72,-0.01840557,-0.20102698,0.23074518,0.00832180,0.19312811\\0.0014878
 5,-0.00188324,-0.00273319,0.00004574,-0.00001922,0.00002481,-0.0000494
 5,-0.00001273,-0.00001396,-0.00161301,-0.00202716,0.00276436,-0.000020
 49,-0.00000698,-0.00001111,-0.00002175,0.00000421,0.00001188,0.0011203
 8,0.00198417,-0.00172086,-0.00095859,0.00197853,0.00164870,0.00000932,
 -0.00001757,0.00002937\\\@
 The archive entry for this job was punched.


 BE NOT THE FIRST BY WHOM THE NEW ARE TRIED,
 NOR YET THE THE LAST TO LAY THE OLD ASIDE.

                          -- ALEXANDER POPE
 Job cpu time:       0 days  0 hours  6 minutes 41.9 seconds.
 Elapsed time:       0 days  0 hours  0 minutes 51.3 seconds.
 File lengths (MBytes):  RWF=     21 Int=      0 D2E=      0 Chk=      2 Scr=      1
 Normal termination of Gaussian 16 at Thu Dec  5 18:23:40 2024.
