 Entering Gaussian System, Link 0=g16
 Input=rotation_std31.gjf
 Output=rotation_std31.log
 Initial command:
 /share/apps/gaussian/g16/l1.exe "/scratch/jingdan2/247460/Gau-189313.inp" -scrdir="/scratch/jingdan2/247460/"
 Entering Link 1 = /share/apps/gaussian/g16/l1.exe PID=    189317.
  
 Copyright (c) 1988-2019, Gaussian, Inc.  All Rights Reserved.
  
 This is part of the Gaussian(R) 16 program.  It is based on
 the Gaussian(R) 09 system (copyright 2009, Gaussian, Inc.),
 the Gaussian(R) 03 system (copyright 2003, Gaussian, Inc.),
 the Gaussian(R) 98 system (copyright 1998, Gaussian, Inc.),
 the Gaussian(R) 94 system (copyright 1995, Gaussian, Inc.),
 the Gaussian 92(TM) system (copyright 1992, Gaussian, Inc.),
 the Gaussian 90(TM) system (copyright 1990, Gaussian, Inc.),
 the Gaussian 88(TM) system (copyright 1988, Gaussian, Inc.),
 the Gaussian 86(TM) system (copyright 1986, Carnegie Mellon
 University), and the Gaussian 82(TM) system (copyright 1983,
 Carnegie Mellon University). Gaussian is a federally registered
 trademark of Gaussian, Inc.
  
 This software contains proprietary and confidential information,
 including trade secrets, belonging to Gaussian, Inc.
  
 This software is provided under written license and may be
 used, copied, transmitted, or stored only in accord with that
 written license.
  
 The following legend is applicable only to US Government
 contracts under FAR:
  
                    RESTRICTED RIGHTS LEGEND
  
 Use, reproduction and disclosure by the US Government is
 subject to restrictions as set forth in subparagraphs (a)
 and (c) of the Commercial Computer Software - Restricted
 Rights clause in FAR 52.227-19.
  
 Gaussian, Inc.
 340 Quinnipiac St., Bldg. 40, Wallingford CT 06492
  
  
 ---------------------------------------------------------------
 Warning -- This program may not be used in any manner that
 competes with the business of Gaussian, Inc. or will provide
 assistance to any competitor of Gaussian, Inc.  The licensee
 of this program is prohibited from giving any competitor of
 Gaussian, Inc. access to this program.  By using this program,
 the user acknowledges that Gaussian, Inc. is engaged in the
 business of creating and licensing software in the field of
 computational chemistry and represents and warrants to the
 licensee that it is not a competitor of Gaussian, Inc. and that
 it will not use this program in any manner prohibited above.
 ---------------------------------------------------------------
  

 Cite this work as:
 Gaussian 16, Revision C.01,
 M. J. Frisch, G. W. Trucks, H. B. Schlegel, G. E. Scuseria, 
 M. A. Robb, J. R. Cheeseman, G. Scalmani, V. Barone, 
 G. A. Petersson, H. Nakatsuji, X. Li, M. Caricato, A. V. Marenich, 
 J. Bloino, B. G. Janesko, R. Gomperts, B. Mennucci, H. P. Hratchian, 
 J. V. Ortiz, A. F. Izmaylov, J. L. Sonnenberg, D. Williams-Young, 
 F. Ding, F. Lipparini, F. Egidi, J. Goings, B. Peng, A. Petrone, 
 T. Henderson, D. Ranasinghe, V. G. Zakrzewski, J. Gao, N. Rega, 
 G. Zheng, W. Liang, M. Hada, M. Ehara, K. Toyota, R. Fukuda, 
 J. Hasegawa, M. Ishida, T. Nakajima, Y. Honda, O. Kitao, H. Nakai, 
 T. Vreven, K. Throssell, J. A. Montgomery, Jr., J. E. Peralta, 
 F. Ogliaro, M. J. Bearpark, J. J. Heyd, E. N. Brothers, K. N. Kudin, 
 V. N. Staroverov, T. A. Keith, R. Kobayashi, J. Normand, 
 K. Raghavachari, A. P. Rendell, J. C. Burant, S. S. Iyengar, 
 J. Tomasi, M. Cossi, J. M. Millam, M. Klene, C. Adamo, R. Cammi, 
 J. W. Ochterski, R. L. Martin, K. Morokuma, O. Farkas, 
 J. B. Foresman, and D. J. Fox, Gaussian, Inc., Wallingford CT, 2019.
 
 ******************************************
 Gaussian 16:  ES64L-G16RevC.01  3-Jul-2019
                 5-Dec-2024 
 ******************************************
 %nprocshared=8
 Will use up to    8 processors via shared memory.
 %mem=8GB
 -------------------------
 # freq b3lyp/6-31g(2df,p)
 -------------------------
 1/10=4,30=1,38=1/1,3;
 2/12=2,17=6,18=5,40=1/2;
 3/5=1,6=6,7=104,11=2,25=1,30=1,71=2,74=-5,140=1/1,2,3;
 4//1;
 5/5=2,38=5,98=1/2;
 8/6=4,10=90,11=11/1;
 11/6=1,8=1,9=11,15=111,16=1/1,2,10;
 10/6=1/2;
 6/7=2,8=2,9=2,10=2,28=1/1;
 7/8=1,10=1,25=1/1,2,3,16;
 1/10=4,30=1/3;
 99//99;
 -------------------------------------------------------------------
 energy: -15.614184499692 gnorm: 0.000439253721 xtb: 6.6.1 (8d0f1dd)
 -------------------------------------------------------------------
 Symbolic Z-matrix:
 Charge =  0 Multiplicity = 1
 C                    -0.60345   0.47736   0.27594 
 H                    -0.89014   0.83979   1.27439 
 H                    -0.34467   1.35147  -0.33923 
 C                     0.64911  -0.40147   0.35968 
 H                     0.40916  -1.38797  -0.05221 
 H                     0.99517  -0.5196    1.39266 
 F                     1.68237   0.1528   -0.36885 
 O                    -1.64417  -0.29597  -0.30137 
 H                    -2.4315    0.25344  -0.35864 
 

 GradGradGradGradGradGradGradGradGradGradGradGradGradGradGradGradGradGrad
 Berny optimization.
 Initialization pass.
 Trust Radius=3.00D-01 FncErr=1.00D-07 GrdErr=1.00D-07 EigMax=2.50D+02 EigMin=1.00D-04
 Number of steps in this run=      2 maximum allowed number of steps=      2.
 GradGradGradGradGradGradGradGradGradGradGradGradGradGradGradGradGradGrad

                          Input orientation:                          
 ---------------------------------------------------------------------
 Center     Atomic      Atomic             Coordinates (Angstroms)
 Number     Number       Type             X           Y           Z
 ---------------------------------------------------------------------
      1          6           0       -0.603448    0.477364    0.275941
      2          1           0       -0.890141    0.839793    1.274386
      3          1           0       -0.344668    1.351474   -0.339225
      4          6           0        0.649114   -0.401467    0.359675
      5          1           0        0.409159   -1.387970   -0.052213
      6          1           0        0.995170   -0.519597    1.392664
      7          9           0        1.682372    0.152800   -0.368854
      8          8           0       -1.644171   -0.295965   -0.301373
      9          1           0       -2.431497    0.253436   -0.358643
 ---------------------------------------------------------------------
                    Distance matrix (angstroms):
                    1          2          3          4          5
     1  C    0.000000
     2  H    1.100200   0.000000
     3  H    1.099757   1.778510   0.000000
     4  C    1.532406   2.178699   2.132807   0.000000
     5  H    2.147680   2.900168   2.855728   1.095636   0.000000
     6  H    2.190110   2.327301   2.880193   1.095799   1.784699
     7  F    2.397097   3.128901   2.355120   1.380431   2.023686
     8  O    1.419307   2.083632   2.098618   2.388990   2.338957
     9  H    1.947974   2.320857   2.358160   3.230332   3.295063
                    6          7          8          9
     6  H    0.000000
     7  F    2.006816   0.000000
     8  O    3.144184   3.357355   0.000000
     9  H    3.925137   4.115112   0.961771   0.000000
 Stoichiometry    C2H5FO
 Framework group  C1[X(C2H5FO)]
 Deg. of freedom    21
 Full point group                 C1      NOp   1
 Largest Abelian subgroup         C1      NOp   1
 Largest concise Abelian subgroup C1      NOp   1
                         Standard orientation:                         
 ---------------------------------------------------------------------
 Center     Atomic      Atomic             Coordinates (Angstroms)
 Number     Number       Type             X           Y           Z
 ---------------------------------------------------------------------
      1          6           0       -0.603448    0.477364    0.275941
      2          1           0       -0.890141    0.839793    1.274386
      3          1           0       -0.344668    1.351474   -0.339225
      4          6           0        0.649114   -0.401467    0.359675
      5          1           0        0.409159   -1.387970   -0.052213
      6          1           0        0.995170   -0.519597    1.392664
      7          9           0        1.682372    0.152800   -0.368854
      8          8           0       -1.644171   -0.295965   -0.301373
      9          1           0       -2.431497    0.253436   -0.358643
 ---------------------------------------------------------------------
 Rotational constants (GHZ):          23.5288900           4.0563960           4.0230725
 Standard basis: 6-31G(2df,p) (6D, 7F)
 There are   149 symmetry adapted cartesian basis functions of A   symmetry.
 There are   137 symmetry adapted basis functions of A   symmetry.
   137 basis functions,   211 primitive gaussians,   149 cartesian basis functions
    17 alpha electrons       17 beta electrons
       nuclear repulsion energy       128.1416742953 Hartrees.
 NAtoms=    9 NActive=    9 NUniq=    9 SFac= 1.00D+00 NAtFMM=   60 NAOKFM=F Big=F
 Integral buffers will be    131072 words long.
 Raffenetti 2 integral format.
 Two-electron integral symmetry is turned on.
 One-electron integrals computed using PRISM.
 NBasis=   137 RedAO= T EigKep=  1.17D-03  NBF=   137
 NBsUse=   137 1.00D-06 EigRej= -1.00D+00 NBFU=   137
 ExpMin= 1.61D-01 ExpMax= 7.00D+03 ExpMxC= 1.05D+03 IAcc=3 IRadAn=         5 AccDes= 0.00D+00
 Harris functional with IExCor=  402 and IRadAn=       5 diagonalized for initial guess.
 HarFok:  IExCor=  402 AccDes= 0.00D+00 IRadAn=         5 IDoV= 1 UseB2=F ITyADJ=14
 ICtDFT=  3500011 ScaDFX=  1.000000  1.000000  1.000000  1.000000
 FoFCou: FMM=F IPFlag=           0 FMFlag=      100000 FMFlg1=           0
         NFxFlg=           0 DoJE=T BraDBF=F KetDBF=T FulRan=T
         wScrn=  0.000000 ICntrl=       500 IOpCl=  0 I1Cent=   200000004 NGrid=           0
         NMat0=    1 NMatS0=      1 NMatT0=    0 NMatD0=    1 NMtDS0=    0 NMtDT0=    0
 Petite list used in FoFCou.
 Keep R1 ints in memory in canonical form, NReq=52495207.
 Requested convergence on RMS density matrix=1.00D-08 within 128 cycles.
 Requested convergence on MAX density matrix=1.00D-06.
 Requested convergence on             energy=1.00D-06.
 No special actions if energy rises.
 Integral accuracy reduced to 1.0D-05 until final iterations.
 Initial convergence to 1.0D-05 achieved.  Increase integral accuracy.
 SCF Done:  E(RB3LYP) =  -254.276825325     A.U. after   11 cycles
            NFock= 11  Conv=0.91D-08     -V/T= 2.0063
 DoSCS=F DFT=T ScalE2(SS,OS)=  1.000000  1.000000
 Range of M.O.s used for correlation:     1   137
 NBasis=   137 NAE=    17 NBE=    17 NFC=     0 NFV=     0
 NROrb=    137 NOA=    17 NOB=    17 NVA=   120 NVB=   120

 **** Warning!!: The largest alpha MO coefficient is  0.18580097D+02

 Symmetrizing basis deriv contribution to polar:
 IMax=3 JMax=2 DiffMx= 0.00D+00
 G2DrvN: will do    10 centers at a time, making    1 passes.
 Calling FoFCou, ICntrl=  3107 FMM=F I1Cent=   0 AccDes= 0.00D+00.
 End of G2Drv F.D. properties file   721 does not exist.
 End of G2Drv F.D. properties file   722 does not exist.
 End of G2Drv F.D. properties file   788 does not exist.
          IDoAtm=111111111
          Differentiating once with respect to electric field.
                with respect to dipole field.
          Differentiating once with respect to nuclear coordinates.
 Keep R1 ints in memory in canonical form, NReq=52475930.
          There are    30 degrees of freedom in the 1st order CPHF.  IDoFFX=6 NUNeed=     3.
     27 vectors produced by pass  0 Test12= 6.80D-15 3.33D-09 XBig12= 1.53D+01 1.21D+00.
 AX will form    27 AO Fock derivatives at one time.
     27 vectors produced by pass  1 Test12= 6.80D-15 3.33D-09 XBig12= 1.03D+00 2.88D-01.
     27 vectors produced by pass  2 Test12= 6.80D-15 3.33D-09 XBig12= 1.97D-02 3.01D-02.
     27 vectors produced by pass  3 Test12= 6.80D-15 3.33D-09 XBig12= 5.54D-05 1.44D-03.
     27 vectors produced by pass  4 Test12= 6.80D-15 3.33D-09 XBig12= 7.75D-08 6.04D-05.
     16 vectors produced by pass  5 Test12= 6.80D-15 3.33D-09 XBig12= 6.26D-11 1.24D-06.
      3 vectors produced by pass  6 Test12= 6.80D-15 3.33D-09 XBig12= 5.81D-14 4.03D-08.
 InvSVY:  IOpt=1 It=  1 EMax= 4.44D-15
 Solved reduced A of dimension   154 with    30 vectors.
 Isotropic polarizability for W=    0.000000       28.34 Bohr**3.
 End of Minotr F.D. properties file   721 does not exist.
 End of Minotr F.D. properties file   722 does not exist.
 End of Minotr F.D. properties file   788 does not exist.

 **********************************************************************

            Population analysis using the SCF Density.

 **********************************************************************

 Orbital symmetries:
       Occupied  (A) (A) (A) (A) (A) (A) (A) (A) (A) (A) (A) (A)
                 (A) (A) (A) (A) (A)
       Virtual   (A) (A) (A) (A) (A) (A) (A) (A) (A) (A) (A) (A)
                 (A) (A) (A) (A) (A) (A) (A) (A) (A) (A) (A) (A)
                 (A) (A) (A) (A) (A) (A) (A) (A) (A) (A) (A) (A)
                 (A) (A) (A) (A) (A) (A) (A) (A) (A) (A) (A) (A)
                 (A) (A) (A) (A) (A) (A) (A) (A) (A) (A) (A) (A)
                 (A) (A) (A) (A) (A) (A) (A) (A) (A) (A) (A) (A)
                 (A) (A) (A) (A) (A) (A) (A) (A) (A) (A) (A) (A)
                 (A) (A) (A) (A) (A) (A) (A) (A) (A) (A) (A) (A)
                 (A) (A) (A) (A) (A) (A) (A) (A) (A) (A) (A) (A)
                 (A) (A) (A) (A) (A) (A) (A) (A) (A) (A) (A) (A)
 The electronic state is 1-A.
 Alpha  occ. eigenvalues --  -24.66356 -19.14191 -10.25123 -10.23474  -1.17845
 Alpha  occ. eigenvalues --   -1.02288  -0.74568  -0.62098  -0.53018  -0.49709
 Alpha  occ. eigenvalues --   -0.45652  -0.45346  -0.42316  -0.36395  -0.32893
 Alpha  occ. eigenvalues --   -0.32083  -0.27427
 Alpha virt. eigenvalues --    0.06817   0.10069   0.13527   0.14508   0.16136
 Alpha virt. eigenvalues --    0.19823   0.22652   0.23968   0.42611   0.46545
 Alpha virt. eigenvalues --    0.49041   0.50682   0.56556   0.63266   0.68224
 Alpha virt. eigenvalues --    0.69998   0.70305   0.72334   0.73151   0.76961
 Alpha virt. eigenvalues --    0.79686   0.82137   0.86071   0.89553   0.91505
 Alpha virt. eigenvalues --    0.95340   0.97342   0.99723   1.02478   1.06414
 Alpha virt. eigenvalues --    1.09429   1.10517   1.27392   1.28086   1.32683
 Alpha virt. eigenvalues --    1.37596   1.41991   1.42546   1.45538   1.54177
 Alpha virt. eigenvalues --    1.59320   1.62460   1.65113   1.70293   1.78356
 Alpha virt. eigenvalues --    1.88629   1.99591   2.07258   2.11284   2.18938
 Alpha virt. eigenvalues --    2.26537   2.40965   2.44610   2.48056   2.53096
 Alpha virt. eigenvalues --    2.55412   2.60657   2.64016   2.77385   2.81732
 Alpha virt. eigenvalues --    2.88962   2.92384   2.95505   3.00906   3.06365
 Alpha virt. eigenvalues --    3.17180   3.28439   3.33740   3.34828   3.38277
 Alpha virt. eigenvalues --    3.40909   3.45006   3.52631   3.59721   3.75496
 Alpha virt. eigenvalues --    3.83781   3.88200   3.92866   4.13680   4.18867
 Alpha virt. eigenvalues --    4.20204   4.24361   4.33321   4.39029   4.42613
 Alpha virt. eigenvalues --    4.44136   4.45674   4.49586   4.54104   4.55500
 Alpha virt. eigenvalues --    4.63882   4.67140   4.68897   4.71014   4.75610
 Alpha virt. eigenvalues --    4.77919   4.81675   4.83567   4.98593   5.21946
 Alpha virt. eigenvalues --    5.31232   5.40408   5.46519   5.56009   5.86285
 Alpha virt. eigenvalues --    5.91981   6.00112   6.03899   6.67125   6.67855
 Alpha virt. eigenvalues --    6.79181   6.79968   7.03443   7.25935   7.31264
 Alpha virt. eigenvalues --    7.32502   9.55316  10.87433  11.95238  13.14187
          Condensed to atoms (all electrons):
               1          2          3          4          5          6
     1  C    4.860471   0.344945   0.356559   0.362478  -0.050527  -0.038532
     2  H    0.344945   0.671098  -0.050870  -0.025415   0.005555  -0.004354
     3  H    0.356559  -0.050870   0.643927  -0.041663   0.004434   0.005101
     4  C    0.362478  -0.025415  -0.041663   4.688210   0.353565   0.349215
     5  H   -0.050527   0.005555   0.004434   0.353565   0.625084  -0.046354
     6  H   -0.038532  -0.004354   0.005101   0.349215  -0.046354   0.656077
     7  F   -0.039704   0.001719   0.007045   0.383393  -0.022157  -0.023588
     8  O    0.339572  -0.030888  -0.028316  -0.031643   0.008589   0.001917
     9  H   -0.047619  -0.003580  -0.004506   0.006197  -0.000185  -0.000366
               7          8          9
     1  C   -0.039704   0.339572  -0.047619
     2  H    0.001719  -0.030888  -0.003580
     3  H    0.007045  -0.028316  -0.004506
     4  C    0.383393  -0.031643   0.006197
     5  H   -0.022157   0.008589  -0.000185
     6  H   -0.023588   0.001917  -0.000366
     7  F    8.854422   0.000207  -0.000059
     8  O    0.000207   7.856096   0.303681
     9  H   -0.000059   0.303681   0.456924
 Mulliken charges:
               1
     1  C   -0.087644
     2  H    0.091790
     3  H    0.108289
     4  C   -0.044337
     5  H    0.121998
     6  H    0.100885
     7  F   -0.161278
     8  O   -0.419216
     9  H    0.289513
 Sum of Mulliken charges =  -0.00000
 Mulliken charges with hydrogens summed into heavy atoms:
               1
     1  C    0.112435
     4  C    0.178546
     7  F   -0.161278
     8  O   -0.129703
 APT charges:
               1
     1  C    0.443003
     2  H   -0.082032
     3  H   -0.060266
     4  C    0.550729
     5  H   -0.026080
     6  H   -0.054526
     7  F   -0.456515
     8  O   -0.553991
     9  H    0.239676
 Sum of APT charges =  -0.00000
 APT charges with hydrogens summed into heavy atoms:
               1
     1  C    0.300706
     4  C    0.470123
     7  F   -0.456515
     8  O   -0.314315
 Electronic spatial extent (au):  <R**2>=            318.8622
 Charge=             -0.0000 electrons
 Dipole moment (field-independent basis, Debye):
    X=             -1.5565    Y=              0.8447    Z=              1.1411  Tot=              2.1068
 Quadrupole moment (field-independent basis, Debye-Ang):
   XX=            -23.1024   YY=            -23.0237   ZZ=            -23.3518
   XY=             -3.4429   XZ=              1.1339   YZ=             -0.4173
 Traceless Quadrupole moment (field-independent basis, Debye-Ang):
   XX=              0.0569   YY=              0.1356   ZZ=             -0.1924
   XY=             -3.4429   XZ=              1.1339   YZ=             -0.4173
 Octapole moment (field-independent basis, Debye-Ang**2):
  XXX=            -12.9245  YYY=             -0.0459  ZZZ=             -2.7843  XYY=              2.3781
  XXY=              4.8809  XXZ=             -1.2905  XZZ=              2.2062  YZZ=              0.3608
  YYZ=             -1.7844  XYZ=              0.6661
 Hexadecapole moment (field-independent basis, Debye-Ang**3):
 XXXX=           -203.2055 YYYY=            -55.3981 ZZZZ=            -48.3072 XXXY=             -9.1047
 XXXZ=              6.1159 YYYX=              2.5904 YYYZ=             -0.4738 ZZZX=             -2.2398
 ZZZY=             -0.4976 XXYY=            -49.4820 XXZZ=            -47.2175 YYZZ=            -17.5437
 XXYZ=             -1.5399 YYXZ=             -0.8219 ZZXY=              0.1941
 N-N= 1.281416742953D+02 E-N=-8.560200042816D+02  KE= 2.526742213139D+02
  Exact polarizability:      31.553      -0.865      27.239       1.129       0.181      26.221
 Approx polarizability:      39.571       0.587      37.318       0.505       0.374      35.833
 Calling FoFJK, ICntrl=    100127 FMM=F ISym2X=0 I1Cent= 0 IOpClX= 0 NMat=1 NMatS=1 NMatT=0.
 Full mass-weighted force constant matrix:
 Low frequencies --- -139.8291  -13.1846   -2.2400   -0.0014   -0.0008   -0.0002
 Low frequencies ---    8.1209  266.3599  409.6445
 ******    1 imaginary frequencies (negative Signs) ****** 
 Diagonal vibrational polarizability:
        9.1881101       5.5170600      42.7764369
 Harmonic frequencies (cm**-1), IR intensities (KM/Mole), Raman scattering
 activities (A**4/AMU), depolarization ratios for plane and unpolarized
 incident light, reduced masses (AMU), force constants (mDyne/A),
 and normal coordinates:
                      1                      2                      3
                      A                      A                      A
 Frequencies --   -139.8285               266.3596               409.6432
 Red. masses --      2.7970                 1.1066                 2.7684
 Frc consts  --      0.0322                 0.0463                 0.2737
 IR Inten    --      3.0246               115.8125                15.3011
  Atom  AN      X      Y      Z        X      Y      Z        X      Y      Z
     1   6     0.03   0.03  -0.17    -0.01   0.02  -0.01    -0.06   0.19   0.09
     2   1     0.19   0.31  -0.22    -0.04  -0.03  -0.00    -0.12   0.02   0.13
     3   1     0.02  -0.15  -0.43    -0.02   0.06   0.03    -0.24   0.28   0.15
     4   6    -0.04  -0.07  -0.16    -0.01   0.02   0.01    -0.14   0.09  -0.11
     5   1    -0.04   0.05  -0.46    -0.02   0.01   0.04    -0.41   0.26  -0.36
     6   1    -0.21  -0.36  -0.14    -0.02   0.05   0.01    -0.17  -0.27  -0.14
     7   9     0.10   0.06   0.13     0.01  -0.03   0.00     0.02  -0.09   0.01
     8   8    -0.10  -0.03   0.15     0.02   0.01  -0.06     0.18  -0.10   0.04
     9   1    -0.11  -0.03   0.24    -0.28  -0.33   0.89     0.05  -0.32  -0.27
                      4                      5                      6
                      A                      A                      A
 Frequencies --    422.8471               853.8904              1006.4157
 Red. masses --      4.2606                 1.6922                 2.5056
 Frc consts  --      0.4488                 0.7269                 1.4953
 IR Inten    --      3.3000                10.3827                59.1594
  Atom  AN      X      Y      Z        X      Y      Z        X      Y      Z
     1   6    -0.18  -0.04   0.06     0.06  -0.06  -0.11     0.19  -0.12   0.02
     2   1    -0.15  -0.41   0.21     0.28  -0.50   0.12     0.10  -0.12  -0.03
     3   1    -0.45   0.22   0.31    -0.17   0.25   0.23     0.08  -0.13  -0.03
     4   6     0.07   0.17  -0.07    -0.06   0.04  -0.12    -0.03   0.25   0.02
     5   1     0.13   0.09   0.09     0.15  -0.18   0.26    -0.42   0.45  -0.26
     6   1     0.00   0.33  -0.03    -0.28   0.50   0.01    -0.02  -0.24  -0.04
     7   9     0.29  -0.09  -0.01    -0.05  -0.01   0.06    -0.05  -0.04   0.02
     8   8    -0.22  -0.01  -0.00     0.06   0.03   0.06    -0.07  -0.07  -0.04
     9   1    -0.13   0.11  -0.16     0.10   0.08   0.03     0.26   0.44   0.22
                      7                      8                      9
                      A                      A                      A
 Frequencies --   1031.3709              1109.4458              1133.7332
 Red. masses --      3.2085                 3.6176                 2.2551
 Frc consts  --      2.0109                 2.6235                 1.7078
 IR Inten    --     62.9161                20.3576                24.6761
  Atom  AN      X      Y      Z        X      Y      Z        X      Y      Z
     1   6     0.11   0.22  -0.08    -0.22  -0.14  -0.04    -0.06  -0.04  -0.19
     2   1     0.11  -0.33   0.12    -0.21   0.18  -0.13    -0.27  -0.49  -0.08
     3   1    -0.37   0.56   0.22    -0.43  -0.23  -0.29    -0.24   0.28   0.19
     4   6     0.26  -0.04   0.02     0.24   0.13  -0.08    -0.04  -0.04   0.20
     5   1     0.04   0.04  -0.08     0.32   0.19  -0.32    -0.21   0.16  -0.19
     6   1     0.26  -0.27   0.01     0.22  -0.21  -0.09    -0.10  -0.46   0.16
     7   9    -0.12  -0.04   0.06    -0.12  -0.09   0.08     0.05   0.04  -0.07
     8   8    -0.13  -0.08  -0.03     0.12   0.12   0.05     0.05   0.04   0.07
     9   1    -0.15  -0.11  -0.10     0.12   0.10   0.06     0.14   0.16   0.09
                     10                     11                     12
                      A                      A                      A
 Frequencies --   1243.7587              1268.1128              1281.5967
 Red. masses --      1.1289                 1.1254                 1.0965
 Frc consts  --      1.0289                 1.0663                 1.0611
 IR Inten    --     19.8827                42.3645                 7.6758
  Atom  AN      X      Y      Z        X      Y      Z        X      Y      Z
     1   6    -0.00  -0.02  -0.04    -0.00  -0.05  -0.01     0.02   0.03   0.04
     2   1    -0.17  -0.15  -0.05     0.70  -0.04   0.19     0.14   0.09   0.06
     3   1     0.71   0.01   0.28    -0.23  -0.11  -0.15    -0.12   0.01  -0.04
     4   6     0.02   0.07  -0.00    -0.01   0.03   0.06    -0.01   0.01   0.04
     5   1     0.18   0.11  -0.19    -0.16   0.09  -0.02     0.63   0.02  -0.30
     6   1    -0.06  -0.04   0.01     0.02  -0.12   0.03    -0.62  -0.08   0.25
     7   9    -0.02  -0.02   0.00     0.01   0.01  -0.01    -0.01  -0.01  -0.04
     8   8    -0.02   0.02   0.04     0.00   0.05  -0.01    -0.01  -0.02  -0.02
     9   1    -0.28  -0.39  -0.21    -0.30  -0.42  -0.24     0.05   0.08   0.04
                     13                     14                     15
                      A                      A                      A
 Frequencies --   1403.2967              1465.5890              1503.7969
 Red. masses --      1.2567                 1.4364                 1.0867
 Frc consts  --      1.4581                 1.8178                 1.4478
 IR Inten    --      7.6150                 3.7230                 0.5729
  Atom  AN      X      Y      Z        X      Y      Z        X      Y      Z
     1   6    -0.06   0.05  -0.03     0.15  -0.06   0.02     0.03   0.03   0.01
     2   1     0.35  -0.09   0.14    -0.43   0.16  -0.23    -0.12  -0.31   0.08
     3   1     0.19   0.02   0.03    -0.49   0.13   0.02    -0.07  -0.17  -0.28
     4   6    -0.10   0.04   0.03    -0.10   0.03   0.00    -0.02  -0.05   0.04
     5   1     0.51  -0.09  -0.04     0.37  -0.09   0.03     0.01   0.21  -0.58
     6   1     0.59  -0.21  -0.23     0.29  -0.14  -0.15     0.23   0.58   0.01
     7   9     0.00  -0.02   0.01     0.01  -0.01   0.00    -0.00  -0.01   0.01
     8   8     0.01  -0.03  -0.01    -0.01   0.04   0.01     0.00   0.01   0.00
     9   1     0.15   0.20   0.11    -0.22  -0.29  -0.16    -0.02  -0.03  -0.01
                     16                     17                     18
                      A                      A                      A
 Frequencies --   1516.7134              2982.3678              3019.0657
 Red. masses --      1.0834                 1.0578                 1.0974
 Frc consts  --      1.4684                 5.5432                 5.8935
 IR Inten    --      7.4197                47.0466                21.8172
  Atom  AN      X      Y      Z        X      Y      Z        X      Y      Z
     1   6    -0.02  -0.06  -0.03     0.01  -0.06  -0.04    -0.02  -0.04   0.07
     2   1     0.23   0.56  -0.15    -0.22   0.25   0.76     0.13  -0.16  -0.42
     3   1    -0.04   0.35   0.50     0.13   0.41  -0.32     0.17   0.63  -0.45
     4   6     0.00  -0.03   0.02     0.00   0.00   0.01    -0.01   0.01  -0.02
     5   1    -0.07   0.13  -0.31    -0.00  -0.01  -0.00    -0.04  -0.16  -0.07
     6   1     0.12   0.31   0.01    -0.03   0.01  -0.09     0.10  -0.03   0.31
     7   9    -0.00  -0.00   0.00     0.00   0.00  -0.00     0.00   0.00  -0.00
     8   8    -0.00  -0.01  -0.01    -0.00  -0.00  -0.00    -0.00  -0.00  -0.00
     9   1     0.04   0.05   0.03    -0.00  -0.01  -0.00     0.00   0.00  -0.00
                     19                     20                     21
                      A                      A                      A
 Frequencies --   3037.9245              3087.9362              3829.5198
 Red. masses --      1.0630                 1.1088                 1.0663
 Frc consts  --      5.7800                 6.2294                 9.2129
 IR Inten    --     52.5338                37.4125                21.8308
  Atom  AN      X      Y      Z        X      Y      Z        X      Y      Z
     1   6     0.01   0.01  -0.03     0.00  -0.00  -0.01    -0.00   0.00   0.00
     2   1    -0.07   0.08   0.22    -0.03   0.03   0.09     0.00   0.00   0.00
     3   1    -0.05  -0.21   0.15    -0.01  -0.02   0.01     0.00   0.00   0.00
     4   6    -0.01   0.05  -0.03    -0.03  -0.05  -0.07     0.00   0.00   0.00
     5   1    -0.14  -0.55  -0.25     0.15   0.69   0.29    -0.00  -0.00  -0.00
     6   1     0.22  -0.06   0.66     0.21  -0.07   0.59    -0.00  -0.00  -0.00
     7   9     0.00   0.00  -0.00     0.00   0.00   0.00    -0.00  -0.00  -0.00
     8   8    -0.00  -0.00   0.00    -0.00   0.00   0.00    -0.05   0.03  -0.00
     9   1    -0.00  -0.00   0.00     0.00  -0.00   0.00     0.82  -0.56   0.06

 -------------------
 - Thermochemistry -
 -------------------
 Temperature   298.150 Kelvin.  Pressure   1.00000 Atm.
 Atom     1 has atomic number  6 and mass  12.00000
 Atom     2 has atomic number  1 and mass   1.00783
 Atom     3 has atomic number  1 and mass   1.00783
 Atom     4 has atomic number  6 and mass  12.00000
 Atom     5 has atomic number  1 and mass   1.00783
 Atom     6 has atomic number  1 and mass   1.00783
 Atom     7 has atomic number  9 and mass  18.99840
 Atom     8 has atomic number  8 and mass  15.99491
 Atom     9 has atomic number  1 and mass   1.00783
 Molecular mass:    64.03244 amu.
 Principal axes and moments of inertia in atomic units:
                           1         2         3
     Eigenvalues --    76.70320 444.91248 448.59774
           X            0.99940  -0.02880   0.01946
           Y            0.03073   0.99370  -0.10776
           Z           -0.01623   0.10830   0.99399
 This molecule is an asymmetric top.
 Rotational symmetry number  1.
 Rotational temperatures (Kelvin)      1.12921     0.19468     0.19308
 Rotational constants (GHZ):          23.52889     4.05640     4.02307
    1 imaginary frequencies ignored.
 Zero-point vibrational energy     190645.2 (Joules/Mol)
                                   45.56529 (Kcal/Mol)
 Warning -- explicit consideration of   3 degrees of freedom as
           vibrations may cause significant error
 Vibrational temperatures:    383.23   589.39   608.38  1228.56  1448.01
          (Kelvin)           1483.91  1596.25  1631.19  1789.49  1824.53
                             1843.93  2019.03  2108.66  2163.63  2182.21
                             4290.96  4343.76  4370.90  4442.85  5509.82
 
 Zero-point correction=                           0.072613 (Hartree/Particle)
 Thermal correction to Energy=                    0.076737
 Thermal correction to Enthalpy=                  0.077681
 Thermal correction to Gibbs Free Energy=         0.046007
 Sum of electronic and zero-point Energies=           -254.204212
 Sum of electronic and thermal Energies=              -254.200088
 Sum of electronic and thermal Enthalpies=            -254.199144
 Sum of electronic and thermal Free Energies=         -254.230819
 
                     E (Thermal)             CV                S
                      KCal/Mol        Cal/Mol-Kelvin    Cal/Mol-Kelvin
 Total                   48.153             13.205             66.665
 Electronic               0.000              0.000              0.000
 Translational            0.889              2.981             38.389
 Rotational               0.889              2.981             24.241
 Vibrational             46.376              7.243              4.035
 Vibration     1          0.672              1.735              1.620
 Vibration     2          0.774              1.449              0.928
 Vibration     3          0.785              1.421              0.882
                       Q            Log10(Q)             Ln(Q)
 Total Bot       0.689233D-21        -21.161634        -48.726463
 Total V=0       0.172965D+13         12.237957         28.178938
 Vib (Bot)       0.772670D-33        -33.112006        -76.243212
 Vib (Bot)    1  0.726904D+00         -0.138523         -0.318960
 Vib (Bot)    2  0.432008D+00         -0.364508         -0.839311
 Vib (Bot)    3  0.414349D+00         -0.382634         -0.881046
 Vib (V=0)       0.193903D+01          0.287585          0.662189
 Vib (V=0)    1  0.138226D+01          0.140591          0.323723
 Vib (V=0)    2  0.116078D+01          0.064750          0.149093
 Vib (V=0)    3  0.114937D+01          0.060461          0.139217
 Electronic      0.100000D+01          0.000000          0.000000
 Translational   0.201397D+08          7.304054         16.818206
 Rotational      0.442913D+05          4.646318         10.698543
 ***** Axes restored to original set *****
 -------------------------------------------------------------------
 Center     Atomic                   Forces (Hartrees/Bohr)
 Number     Number              X              Y              Z
 -------------------------------------------------------------------
      1        6          -0.000233310   -0.000276266    0.000399648
      2        1           0.000001113    0.000002719   -0.000002130
      3        1           0.000006202    0.000000054    0.000000654
      4        6           0.000229780    0.000374533    0.000394457
      5        1           0.000008694   -0.000012770    0.000001434
      6        1           0.000005985   -0.000005370   -0.000003338
      7        9          -0.000158465   -0.000243871   -0.000382753
      8        8           0.000132592    0.000169820   -0.000409047
      9        1           0.000007409   -0.000008849    0.000001074
 -------------------------------------------------------------------
 Cartesian Forces:  Max     0.000409047 RMS     0.000200414

 GradGradGradGradGradGradGradGradGradGradGradGradGradGradGradGradGradGrad
 Berny optimization.
 Search for a local minimum.
 Step number   1 out of a maximum of    2
 All quantities printed in internal units (Hartrees-Bohrs-Radians)
 Second derivative matrix not updated -- analytic derivatives used.
 ITU=  0
     Eigenvalues ---   -0.00264   0.00426   0.02093   0.03323   0.05587
     Eigenvalues ---    0.06792   0.07591   0.08227   0.11439   0.11997
     Eigenvalues ---    0.14996   0.15875   0.20693   0.30266   0.46660
     Eigenvalues ---    0.64845   0.71509   0.76617   0.81327   0.83455
     Eigenvalues ---    1.03799
 Eigenvalue     1 is  -2.64D-03 should be greater than     0.000000 Eigenvector:
                          Z5        Z3        Y6        Y2        Z7
   1                    0.43120   0.40646   0.35647  -0.31516  -0.26847
                          Z8        X6        Z9        X2        Z2
   1                   -0.23310   0.23219  -0.19797  -0.19024   0.18774
 Angle between quadratic step and forces=  64.65 degrees.
 Linear search not attempted -- first point.
 B after Tr=    -0.001607   -0.002972   -0.013036
         Rot=    0.999999    0.000291   -0.000702    0.001246 Ang=   0.17 deg.
 Variable       Old X    -DE/DX   Delta X   Delta X   Delta X     New X
                                 (Linear)    (Quad)   (Total)
    X1       -1.14035  -0.00023   0.00000  -0.00353  -0.00213  -1.14248
    Y1        0.90209  -0.00028   0.00000  -0.00332  -0.00313   0.89896
    Z1        0.52145   0.00040   0.00000   0.01999   0.00803   0.52949
    X2       -1.68212   0.00000   0.00000  -0.03354  -0.02789  -1.71001
    Y2        1.58698   0.00000   0.00000  -0.04753  -0.04482   1.54216
    Z2        2.40824  -0.00000   0.00000   0.02717   0.01564   2.42388
    X3       -0.65133   0.00001   0.00000   0.00461   0.00862  -0.64271
    Y3        2.55392   0.00000   0.00000   0.02530   0.02360   2.57751
    Z3       -0.64104   0.00000   0.00000   0.06328   0.04965  -0.59140
    X4        1.22665   0.00023   0.00000   0.00369   0.00118   1.22783
    Y4       -0.75866   0.00037   0.00000   0.00857   0.00294  -0.75573
    Z4        0.67969   0.00039   0.00000   0.01811   0.00378   0.68347
    X5        0.77320   0.00001   0.00000  -0.00468  -0.01289   0.76031
    Y5       -2.62288  -0.00001   0.00000  -0.01058  -0.01547  -2.63836
    Z5       -0.09867   0.00000   0.00000   0.06816   0.05558  -0.04309
    X6        1.88060   0.00001   0.00000   0.03565   0.03544   1.91604
    Y6       -0.98190  -0.00001   0.00000   0.05482   0.04861  -0.93328
    Z6        2.63175  -0.00000   0.00000   0.01259  -0.00259   2.62916
    X7        3.17922  -0.00016   0.00000  -0.02246  -0.02446   3.15476
    Y7        0.28875  -0.00024   0.00000  -0.02301  -0.03428   0.25447
    Z7       -0.69703  -0.00038   0.00000  -0.04258  -0.06019  -0.75723
    X8       -3.10703   0.00013   0.00000   0.02059   0.01677  -3.09026
    Y8       -0.55929   0.00017   0.00000   0.01314   0.01750  -0.54179
    Z8       -0.56951  -0.00041   0.00000  -0.04494  -0.05332  -0.62284
    X9       -4.59486   0.00001   0.00000   0.00673   0.00536  -4.58950
    Y9        0.47892  -0.00001   0.00000  -0.00301   0.00506   0.48398
    Z9       -0.67774   0.00000   0.00000  -0.00970  -0.01658  -0.69431
         Item               Value     Threshold  Converged?
 Maximum Force            0.000409     0.000450     YES
 RMS     Force            0.000200     0.000300     YES
 Maximum Displacement     0.060194     0.001800     NO 
 RMS     Displacement     0.028872     0.001200     NO 
 Predicted change in Energy=-9.757203D-05
 GradGradGradGradGradGradGradGradGradGradGradGradGradGradGradGradGradGrad


 ----------------------------------------------------------------------

 Electric dipole moment (input orientation):
 (Debye = 10**-18 statcoulomb cm , SI units = C m)
                  (au)            (Debye)         (10**-30 SI)
   Tot        0.828862D+00      0.210676D+01      0.702739D+01
   x         -0.612383D+00     -0.155652D+01     -0.519200D+01
   y          0.332335D+00      0.844711D+00      0.281765D+01
   z          0.448947D+00      0.114111D+01      0.380633D+01

 Dipole polarizability, Alpha (input orientation).
 (esu units = cm**3 , SI units = C**2 m**2 J**-1)
 Alpha(0;0):
               (au)            (10**-24 esu)      (10**-40 SI)
   iso        0.283376D+02      0.419919D+01      0.467223D+01
   aniso      0.549513D+01      0.814294D+00      0.906024D+00
   xx         0.315526D+02      0.467561D+01      0.520232D+01
   yx        -0.864633D+00     -0.128125D+00     -0.142559D+00
   yy         0.272387D+02      0.403636D+01      0.449106D+01
   zx         0.112878D+01      0.167268D+00      0.186111D+00
   zy         0.180565D+00      0.267570D-01      0.297712D-01
   zz         0.262214D+02      0.388560D+01      0.432332D+01

 ----------------------------------------------------------------------

 Dipole orientation:
     6         -0.17797823          0.37981532          1.48665396
     1          0.99768624          0.13266886          3.18350152
     1         -0.40357888          2.41946428          1.15800078
     6          1.14870877         -0.71636588         -0.84231611
     1         -0.07746992         -2.16123256         -1.67635308
     1          2.97044754         -1.57334785         -0.35765362
     9          1.59403468          1.14901823         -2.61065065
     8         -2.53514488         -0.86965164          1.76282521
     1         -3.37663028         -0.18220030          3.21972623

 Electric dipole moment (dipole orientation):
 (Debye = 10**-18 statcoulomb cm , SI units = C m)
                  (au)            (Debye)         (10**-30 SI)
   Tot        0.828862D+00      0.210676D+01      0.702739D+01
   x          0.000000D+00      0.000000D+00      0.000000D+00
   y          0.000000D+00      0.000000D+00      0.000000D+00
   z          0.828862D+00      0.210676D+01      0.702739D+01

 Dipole polarizability, Alpha (dipole orientation).
 (esu units = cm**3 , SI units = C**2 m**2 J**-1)
 Alpha(0;0):
               (au)            (10**-24 esu)      (10**-40 SI)
   iso        0.283376D+02      0.419919D+01      0.467223D+01
   aniso      0.549513D+01      0.814294D+00      0.906024D+00
   xx         0.293972D+02      0.435622D+01      0.484694D+01
   yx         0.278128D+00      0.412143D-01      0.458571D-01
   yy         0.266332D+02      0.394663D+01      0.439122D+01
   zx        -0.271595D+01     -0.402462D+00     -0.447799D+00
   zy         0.624533D+00      0.925462D-01      0.102972D+00
   zz         0.289823D+02      0.429473D+01      0.477853D+01

 ----------------------------------------------------------------------
 Unable to Open any file for archive entry.
 1\1\GINC-COMPUTE-2-4\Freq\RB3LYP\6-31G(2df,p)\C2H5F1O1\JINGDAN2\05-Dec
 -2024\0\\# freq b3lyp/6-31g(2df,p)\\energy: -15.614184499692 gnorm: 0.
 000439253721 xtb: 6.6.1 (8d0f1dd)\\0,1\C,-0.603448,0.477364,0.275941\H
 ,-0.890141,0.839793,1.274386\H,-0.344668,1.351474,-0.339225\C,0.649114
 ,-0.401467,0.359675\H,0.409159,-1.38797,-0.052213\H,0.99517,-0.519597,
 1.392664\F,1.682372,0.1528,-0.368854\O,-1.644171,-0.295965,-0.301373\H
 ,-2.431497,0.253436,-0.358643\\Version=ES64L-G16RevC.01\State=1-A\HF=-
 254.2768253\RMSD=9.132e-09\RMSF=2.004e-04\ZeroPoint=0.0726129\Thermal=
 0.0767372\ETot=-254.2000881\HTot=-254.199144\GTot=-254.2308185\Dipole=
 -0.6123826,0.3323349,0.4489473\DipoleDeriv=0.5610449,0.1978651,0.12275
 72,0.2831811,0.3201316,0.083145,0.0999641,0.1068833,0.4478334,-0.05564
 44,0.0300477,0.0342393,-0.016157,-0.010108,-0.0665849,0.0247089,-0.097
 9541,-0.1803424,-0.0363879,-0.0504179,0.0118782,-0.070243,-0.1053996,0
 .0548108,0.0046047,0.0962057,-0.0390096,0.7210945,0.1025475,-0.1808315
 ,0.1788892,0.3968453,-0.0823825,-0.1909893,-0.0970049,0.5342484,0.0063
 238,-0.0310883,0.0074835,-0.0353658,-0.0912775,-0.0332406,0.0080327,-0
 .0731997,0.0067128,-0.0467411,0.0244223,-0.0563747,-0.0066901,0.032517
 4,0.0022421,-0.0469642,0.0438095,-0.1493538,-0.6620267,-0.1062931,0.22
 25686,-0.1680833,-0.3182676,0.118878,0.2535095,0.1023338,-0.3892496,-0
 .6923725,-0.2393343,-0.1463831,-0.2600074,-0.413217,-0.0557779,-0.1458
 406,-0.0528041,-0.5563832,0.2047093,0.0722509,-0.0153376,0.0944763,0.1
 887753,-0.0210901,-0.007026,-0.0282696,0.3255441\Polar=31.5526014,-0.8
 646335,27.2387243,1.1287806,0.1805651,26.2213535\Quadrupole=0.0422825,
 0.1007975,-0.14308,-2.559732,0.8429931,-0.310228\PG=C01 [X(C2H5F1O1)]\
 NImag=1\\0.48257263,-0.00311314,0.53179336,-0.04483375,-0.01472417,0.5
 5957723,-0.07172916,0.02347337,0.06825937,0.08049835,0.02150310,-0.073
 22994,-0.05988406,-0.01941136,0.07916853,0.06849218,-0.06299563,-0.248
 03937,-0.06369240,0.07758789,0.27203764,-0.05755921,-0.03465854,0.0296
 0235,0.00088475,-0.00691337,0.00806323,0.06910890,-0.03626656,-0.19536
 895,0.11068396,0.00331730,0.00913337,-0.00530052,0.04978120,0.21949210
 ,0.02953379,0.11615859,-0.14013578,0.00541263,0.02295289,-0.01717753,-
 0.03061990,-0.12082469,0.14263350,-0.13215888,0.05739732,-0.01165346,-
 0.00489478,0.00570546,-0.00240726,0.00372353,-0.00217051,0.00235790,0.
 47995147,0.06191211,-0.12408629,0.00569914,0.00765881,-0.00460950,0.00
 387552,0.02107802,-0.01789764,0.00118657,0.02636353,0.54804844,-0.0042
 6102,0.00158524,-0.07962874,0.02205928,-0.01655043,0.00179722,-0.01422
 759,0.01543333,-0.00181251,0.05249654,0.02714418,0.57574253,0.00388633
 ,0.02371661,0.00831233,-0.00195383,0.00111631,-0.00026150,-0.00229872,
 0.00123463,-0.00021556,-0.05712453,-0.03913907,-0.01943092,0.07068306,
 -0.00102932,-0.01902500,-0.01141843,0.00216508,-0.00174714,0.00093012,
 0.00102148,-0.00054854,0.00004497,-0.04202214,-0.25319998,-0.09165933,
 0.05467366,0.27849919,-0.00189736,0.00326064,0.00265138,-0.00032334,0.
 00027043,0.00031337,0.00006024,-0.00006148,-0.00049895,-0.02317954,-0.
 10041782,-0.09872170,0.01771822,0.09727692,0.09667899,-0.00534338,0.00
 277321,-0.02196488,-0.00003185,-0.00040283,0.00010783,-0.00210981,0.00
 202295,-0.00035115,-0.08127424,0.00720994,-0.09057188,0.00099145,0.002
 40235,-0.00556703,0.09098516,0.00795551,0.00010661,0.01697753,-0.00053
 004,0.00133108,-0.00022169,0.00100764,-0.00170126,0.00019486,0.0064258
 9,-0.05632408,0.01327049,-0.00915969,0.00483373,-0.02700632,-0.0056995
 9,0.05399341,0.00117811,-0.00392090,-0.00007122,0.00013782,0.00029918,
 0.00184791,0.00017925,-0.00056505,0.00049494,-0.08511086,0.01874148,-0
 .27032307,-0.00655257,0.00092936,-0.01001197,0.08049779,-0.02676428,0.
 30056900,-0.03332211,-0.01457621,0.02631008,-0.00491320,0.00273873,0.0
 0057334,0.00178762,-0.00274958,-0.00002111,-0.17158404,-0.06350398,0.0
 7605107,-0.01595317,-0.01361062,0.01269237,0.00067701,-0.00254040,0.01
 110508,0.23057018,0.00865475,0.00780284,-0.00645118,0.00122848,-0.0004
 8870,-0.00069279,-0.00076872,0.00406195,-0.00153333,-0.06125198,-0.100
 87427,0.04405847,-0.03219467,-0.01218605,0.02609680,-0.00975017,-0.001
 42593,0.01045456,0.09206435,0.10206680,0.00901427,0.00134944,-0.000731
 85,0.00041992,-0.00107611,0.00102055,-0.00027855,-0.00112700,0.0017003
 3,0.07649354,0.04615780,-0.12509846,-0.00026107,0.00384463,0.00878466,
 0.03828806,0.02243357,-0.02290135,-0.12531824,-0.07127671,0.13723584,-
 0.15939254,-0.07609369,-0.05377857,0.00005354,-0.00508315,-0.01080667,
 -0.01497348,-0.01604891,-0.00746964,-0.03342301,-0.01822084,-0.0185164
 5,0.00165533,-0.00260095,0.00051810,-0.00309840,0.00216422,-0.00135673
 ,-0.00632661,0.00205117,0.00136268,0.56193178,-0.03120968,-0.13714043,
 -0.03577461,-0.01763339,-0.00953473,-0.01231598,-0.02979353,-0.0174985
 6,-0.01822468,0.01098767,0.01193053,0.00868534,-0.00005445,0.00248157,
 0.00030598,0.00165026,-0.00151588,0.00082751,0.00281392,0.00049351,-0.
 00085241,-0.14026139,0.35506566,-0.04005633,-0.05059073,-0.09025491,-0
 .03214126,-0.02434973,-0.01223064,0.00659963,0.00258225,0.01379304,-0.
 00716334,0.00006351,-0.00183722,0.00071793,0.00006562,0.00071182,-0.00
 025987,0.00042849,0.00041585,-0.00100674,-0.00087939,0.00039225,0.1103
 8526,0.06219816,0.10003326,-0.02695370,0.02108108,-0.00025348,0.002086
 17,0.00074711,-0.00006875,0.00143641,0.00087948,0.00137303,-0.00321552
 ,-0.00335852,-0.00359903,0.00011408,-0.00099953,-0.00002166,-0.0007959
 4,0.00037646,-0.00007788,-0.00093568,-0.00003321,0.00027941,-0.3464266
 2,0.20350059,-0.03707527,0.37469080,-0.02840678,0.00914780,-0.00510818
 ,-0.00026825,-0.00002297,-0.00086691,-0.00075418,0.00032753,0.00004481
 ,-0.00143523,-0.00298721,-0.00196729,-0.00019333,0.00089222,0.00027484
 ,-0.00020612,0.00070233,-0.00000185,-0.00063620,0.00054984,0.00054679,
 0.25409354,-0.20428166,0.01048182,-0.22219347,0.19567212,-0.01716990,0
 .00987752,-0.00336675,-0.00013201,0.00074992,0.00043086,0.00062134,-0.
 00082080,0.00100295,-0.00183350,-0.00245037,-0.00011805,-0.00002686,-0
 .00001386,0.00009240,-0.00017887,0.00068736,-0.00002009,-0.00038585,0.
 00022356,-0.00040198,-0.02033798,-0.00484931,-0.01102346,0.03944363,-0
 .00340402,0.01340411\\0.00023331,0.00027627,-0.00039965,-0.00000111,-0
 .00000272,0.00000213,-0.00000620,-0.00000005,-0.00000065,-0.00022978,-
 0.00037453,-0.00039446,-0.00000869,0.00001277,-0.00000143,-0.00000599,
 0.00000537,0.00000334,0.00015847,0.00024387,0.00038275,-0.00013259,-0.
 00016982,0.00040905,-0.00000741,0.00000885,-0.00000107\\\@
 The archive entry for this job was punched.


    UPON JULIA'S CLOTHES

 WHENAS IN SILKS MY JULIA GOES,
 THEN, THEN, METHINKS, HOW SWEETLY FLOWS
 THAT LIQUEFACTION OF HER CLOTHES.

 NEXT, WHEN I CAST MINE EYES, AND SEE
 THAT BRAVE VIBRATION, EACH WAY FREE,
 O, HOW THAT GLITTERING TAKETH ME!
     -- ROBERT HERRICK, 1648
 Job cpu time:       0 days  0 hours  6 minutes 25.8 seconds.
 Elapsed time:       0 days  0 hours  0 minutes 49.3 seconds.
 File lengths (MBytes):  RWF=     21 Int=      0 D2E=      0 Chk=      2 Scr=      1
 Normal termination of Gaussian 16 at Thu Dec  5 18:23:38 2024.
