 Entering Gaussian System, Link 0=g16
 Input=rotation_std37.gjf
 Output=rotation_std37.log
 Initial command:
 /share/apps/gaussian/g16/l1.exe "/scratch/jingdan2/247466/Gau-175407.inp" -scrdir="/scratch/jingdan2/247466/"
 Entering Link 1 = /share/apps/gaussian/g16/l1.exe PID=    175415.
  
 Copyright (c) 1988-2019, Gaussian, Inc.  All Rights Reserved.
  
 This is part of the Gaussian(R) 16 program.  It is based on
 the Gaussian(R) 09 system (copyright 2009, Gaussian, Inc.),
 the Gaussian(R) 03 system (copyright 2003, Gaussian, Inc.),
 the Gaussian(R) 98 system (copyright 1998, Gaussian, Inc.),
 the Gaussian(R) 94 system (copyright 1995, Gaussian, Inc.),
 the Gaussian 92(TM) system (copyright 1992, Gaussian, Inc.),
 the Gaussian 90(TM) system (copyright 1990, Gaussian, Inc.),
 the Gaussian 88(TM) system (copyright 1988, Gaussian, Inc.),
 the Gaussian 86(TM) system (copyright 1986, Carnegie Mellon
 University), and the Gaussian 82(TM) system (copyright 1983,
 Carnegie Mellon University). Gaussian is a federally registered
 trademark of Gaussian, Inc.
  
 This software contains proprietary and confidential information,
 including trade secrets, belonging to Gaussian, Inc.
  
 This software is provided under written license and may be
 used, copied, transmitted, or stored only in accord with that
 written license.
  
 The following legend is applicable only to US Government
 contracts under FAR:
  
                    RESTRICTED RIGHTS LEGEND
  
 Use, reproduction and disclosure by the US Government is
 subject to restrictions as set forth in subparagraphs (a)
 and (c) of the Commercial Computer Software - Restricted
 Rights clause in FAR 52.227-19.
  
 Gaussian, Inc.
 340 Quinnipiac St., Bldg. 40, Wallingford CT 06492
  
  
 ---------------------------------------------------------------
 Warning -- This program may not be used in any manner that
 competes with the business of Gaussian, Inc. or will provide
 assistance to any competitor of Gaussian, Inc.  The licensee
 of this program is prohibited from giving any competitor of
 Gaussian, Inc. access to this program.  By using this program,
 the user acknowledges that Gaussian, Inc. is engaged in the
 business of creating and licensing software in the field of
 computational chemistry and represents and warrants to the
 licensee that it is not a competitor of Gaussian, Inc. and that
 it will not use this program in any manner prohibited above.
 ---------------------------------------------------------------
  

 Cite this work as:
 Gaussian 16, Revision C.01,
 M. J. Frisch, G. W. Trucks, H. B. Schlegel, G. E. Scuseria, 
 M. A. Robb, J. R. Cheeseman, G. Scalmani, V. Barone, 
 G. A. Petersson, H. Nakatsuji, X. Li, M. Caricato, A. V. Marenich, 
 J. Bloino, B. G. Janesko, R. Gomperts, B. Mennucci, H. P. Hratchian, 
 J. V. Ortiz, A. F. Izmaylov, J. L. Sonnenberg, D. Williams-Young, 
 F. Ding, F. Lipparini, F. Egidi, J. Goings, B. Peng, A. Petrone, 
 T. Henderson, D. Ranasinghe, V. G. Zakrzewski, J. Gao, N. Rega, 
 G. Zheng, W. Liang, M. Hada, M. Ehara, K. Toyota, R. Fukuda, 
 J. Hasegawa, M. Ishida, T. Nakajima, Y. Honda, O. Kitao, H. Nakai, 
 T. Vreven, K. Throssell, J. A. Montgomery, Jr., J. E. Peralta, 
 F. Ogliaro, M. J. Bearpark, J. J. Heyd, E. N. Brothers, K. N. Kudin, 
 V. N. Staroverov, T. A. Keith, R. Kobayashi, J. Normand, 
 K. Raghavachari, A. P. Rendell, J. C. Burant, S. S. Iyengar, 
 J. Tomasi, M. Cossi, J. M. Millam, M. Klene, C. Adamo, R. Cammi, 
 J. W. Ochterski, R. L. Martin, K. Morokuma, O. Farkas, 
 J. B. Foresman, and D. J. Fox, Gaussian, Inc., Wallingford CT, 2019.
 
 ******************************************
 Gaussian 16:  ES64L-G16RevC.01  3-Jul-2019
                 5-Dec-2024 
 ******************************************
 %nprocshared=8
 Will use up to    8 processors via shared memory.
 %mem=8GB
 -------------------------
 # freq b3lyp/6-31g(2df,p)
 -------------------------
 1/10=4,30=1,38=1/1,3;
 2/12=2,17=6,18=5,40=1/2;
 3/5=1,6=6,7=104,11=2,25=1,30=1,71=2,74=-5,140=1/1,2,3;
 4//1;
 5/5=2,38=5,98=1/2;
 8/6=4,10=90,11=11/1;
 11/6=1,8=1,9=11,15=111,16=1/1,2,10;
 10/6=1/2;
 6/7=2,8=2,9=2,10=2,28=1/1;
 7/8=1,10=1,25=1/1,2,3,16;
 1/10=4,30=1/3;
 99//99;
 -------------------------------------------------------------------
 energy: -15.614184499692 gnorm: 0.000439253721 xtb: 6.6.1 (8d0f1dd)
 -------------------------------------------------------------------
 Symbolic Z-matrix:
 Charge =  0 Multiplicity = 1
 C                    -0.55286   0.49886   0.00016 
 H                    -0.46646   1.14197   0.88925 
 H                    -0.46607   1.14253  -0.88846 
 C                     0.59413  -0.50012   0.0005 
 H                     0.54431  -1.13812  -0.88965 
 H                     0.54457  -1.13678   0.89164 
 F                     1.7882    0.1884   -0.00037 
 O                    -1.7506   -0.25641  -0.00072 
 H                    -2.493     0.35364   0.00236 
 

 GradGradGradGradGradGradGradGradGradGradGradGradGradGradGradGradGradGrad
 Berny optimization.
 Initialization pass.
 Trust Radius=3.00D-01 FncErr=1.00D-07 GrdErr=1.00D-07 EigMax=2.50D+02 EigMin=1.00D-04
 Number of steps in this run=      2 maximum allowed number of steps=      2.
 GradGradGradGradGradGradGradGradGradGradGradGradGradGradGradGradGradGrad

                          Input orientation:                          
 ---------------------------------------------------------------------
 Center     Atomic      Atomic             Coordinates (Angstroms)
 Number     Number       Type             X           Y           Z
 ---------------------------------------------------------------------
      1          6           0       -0.552859    0.498863    0.000162
      2          1           0       -0.466457    1.141971    0.889248
      3          1           0       -0.466067    1.142526   -0.888460
      4          6           0        0.594134   -0.500119    0.000498
      5          1           0        0.544310   -1.138123   -0.889646
      6          1           0        0.544565   -1.136783    0.891635
      7          9           0        1.788202    0.188397   -0.000373
      8          8           0       -1.750602   -0.256408   -0.000717
      9          1           0       -2.493004    0.353640    0.002356
 ---------------------------------------------------------------------
                    Distance matrix (angstroms):
                    1          2          3          4          5
     1  C    0.000000
     2  H    1.100694   0.000000
     3  H    1.100674   1.777708   0.000000
     4  C    1.521038   2.147368   2.147686   0.000000
     5  H    2.162235   3.063485   2.494438   1.096306   0.000000
     6  H    2.162036   2.492968   3.063554   1.096323   1.781282
     7  F    2.361558   2.604653   2.603995   1.378352   2.024285
     8  O    1.415988   2.096790   2.096458   2.357368   2.614237
     9  H    1.945574   2.348390   2.350397   3.203019   3.499471
                    6          7          8          9
     6  H    0.000000
     7  F    2.024454   0.000000
     8  O    2.615176   3.566649   0.000000
     9  H    3.498429   4.284395   0.960900   0.000000
 Stoichiometry    C2H5FO
 Framework group  C1[X(C2H5FO)]
 Deg. of freedom    21
 Full point group                 C1      NOp   1
 Largest Abelian subgroup         C1      NOp   1
 Largest concise Abelian subgroup C1      NOp   1
                         Standard orientation:                         
 ---------------------------------------------------------------------
 Center     Atomic      Atomic             Coordinates (Angstroms)
 Number     Number       Type             X           Y           Z
 ---------------------------------------------------------------------
      1          6           0       -0.552859    0.498863    0.000162
      2          1           0       -0.466457    1.141971    0.889248
      3          1           0       -0.466067    1.142526   -0.888460
      4          6           0        0.594134   -0.500119    0.000498
      5          1           0        0.544310   -1.138123   -0.889646
      6          1           0        0.544565   -1.136783    0.891635
      7          9           0        1.788202    0.188397   -0.000373
      8          8           0       -1.750602   -0.256408   -0.000717
      9          1           0       -2.493004    0.353640    0.002356
 ---------------------------------------------------------------------
 Rotational constants (GHZ):          31.2764521           3.9479937           3.6678888
 Standard basis: 6-31G(2df,p) (6D, 7F)
 There are   149 symmetry adapted cartesian basis functions of A   symmetry.
 There are   137 symmetry adapted basis functions of A   symmetry.
   137 basis functions,   211 primitive gaussians,   149 cartesian basis functions
    17 alpha electrons       17 beta electrons
       nuclear repulsion energy       128.1051075902 Hartrees.
 NAtoms=    9 NActive=    9 NUniq=    9 SFac= 1.00D+00 NAtFMM=   60 NAOKFM=F Big=F
 Integral buffers will be    131072 words long.
 Raffenetti 2 integral format.
 Two-electron integral symmetry is turned on.
 One-electron integrals computed using PRISM.
 NBasis=   137 RedAO= T EigKep=  1.26D-03  NBF=   137
 NBsUse=   137 1.00D-06 EigRej= -1.00D+00 NBFU=   137
 ExpMin= 1.61D-01 ExpMax= 7.00D+03 ExpMxC= 1.05D+03 IAcc=3 IRadAn=         5 AccDes= 0.00D+00
 Harris functional with IExCor=  402 and IRadAn=       5 diagonalized for initial guess.
 HarFok:  IExCor=  402 AccDes= 0.00D+00 IRadAn=         5 IDoV= 1 UseB2=F ITyADJ=14
 ICtDFT=  3500011 ScaDFX=  1.000000  1.000000  1.000000  1.000000
 FoFCou: FMM=F IPFlag=           0 FMFlag=      100000 FMFlg1=           0
         NFxFlg=           0 DoJE=T BraDBF=F KetDBF=T FulRan=T
         wScrn=  0.000000 ICntrl=       500 IOpCl=  0 I1Cent=   200000004 NGrid=           0
         NMat0=    1 NMatS0=      1 NMatT0=    0 NMatD0=    1 NMtDS0=    0 NMtDT0=    0
 Petite list used in FoFCou.
 Keep R1 ints in memory in canonical form, NReq=52495207.
 Requested convergence on RMS density matrix=1.00D-08 within 128 cycles.
 Requested convergence on MAX density matrix=1.00D-06.
 Requested convergence on             energy=1.00D-06.
 No special actions if energy rises.
 Integral accuracy reduced to 1.0D-05 until final iterations.
 Initial convergence to 1.0D-05 achieved.  Increase integral accuracy.
 SCF Done:  E(RB3LYP) =  -254.280889947     A.U. after   12 cycles
            NFock= 12  Conv=0.26D-08     -V/T= 2.0064
 DoSCS=F DFT=T ScalE2(SS,OS)=  1.000000  1.000000
 Range of M.O.s used for correlation:     1   137
 NBasis=   137 NAE=    17 NBE=    17 NFC=     0 NFV=     0
 NROrb=    137 NOA=    17 NOB=    17 NVA=   120 NVB=   120

 **** Warning!!: The largest alpha MO coefficient is  0.18596380D+02

 Symmetrizing basis deriv contribution to polar:
 IMax=3 JMax=2 DiffMx= 0.00D+00
 G2DrvN: will do    10 centers at a time, making    1 passes.
 Calling FoFCou, ICntrl=  3107 FMM=F I1Cent=   0 AccDes= 0.00D+00.
 End of G2Drv F.D. properties file   721 does not exist.
 End of G2Drv F.D. properties file   722 does not exist.
 End of G2Drv F.D. properties file   788 does not exist.
          IDoAtm=111111111
          Differentiating once with respect to electric field.
                with respect to dipole field.
          Differentiating once with respect to nuclear coordinates.
 Keep R1 ints in memory in canonical form, NReq=52475937.
          There are    30 degrees of freedom in the 1st order CPHF.  IDoFFX=6 NUNeed=     3.
     27 vectors produced by pass  0 Test12= 6.80D-15 3.33D-09 XBig12= 1.51D+01 1.57D+00.
 AX will form    27 AO Fock derivatives at one time.
     27 vectors produced by pass  1 Test12= 6.80D-15 3.33D-09 XBig12= 1.22D+00 2.42D-01.
     27 vectors produced by pass  2 Test12= 6.80D-15 3.33D-09 XBig12= 2.04D-02 2.96D-02.
     27 vectors produced by pass  3 Test12= 6.80D-15 3.33D-09 XBig12= 6.87D-05 1.58D-03.
     27 vectors produced by pass  4 Test12= 6.80D-15 3.33D-09 XBig12= 1.05D-07 5.93D-05.
     18 vectors produced by pass  5 Test12= 6.80D-15 3.33D-09 XBig12= 8.22D-11 1.42D-06.
      3 vectors produced by pass  6 Test12= 6.80D-15 3.33D-09 XBig12= 8.48D-14 4.50D-08.
 InvSVY:  IOpt=1 It=  1 EMax= 4.00D-15
 Solved reduced A of dimension   156 with    30 vectors.
 Isotropic polarizability for W=    0.000000       28.30 Bohr**3.
 End of Minotr F.D. properties file   721 does not exist.
 End of Minotr F.D. properties file   722 does not exist.
 End of Minotr F.D. properties file   788 does not exist.

 **********************************************************************

            Population analysis using the SCF Density.

 **********************************************************************

 Orbital symmetries:
       Occupied  (A) (A) (A) (A) (A) (A) (A) (A) (A) (A) (A) (A)
                 (A) (A) (A) (A) (A)
       Virtual   (A) (A) (A) (A) (A) (A) (A) (A) (A) (A) (A) (A)
                 (A) (A) (A) (A) (A) (A) (A) (A) (A) (A) (A) (A)
                 (A) (A) (A) (A) (A) (A) (A) (A) (A) (A) (A) (A)
                 (A) (A) (A) (A) (A) (A) (A) (A) (A) (A) (A) (A)
                 (A) (A) (A) (A) (A) (A) (A) (A) (A) (A) (A) (A)
                 (A) (A) (A) (A) (A) (A) (A) (A) (A) (A) (A) (A)
                 (A) (A) (A) (A) (A) (A) (A) (A) (A) (A) (A) (A)
                 (A) (A) (A) (A) (A) (A) (A) (A) (A) (A) (A) (A)
                 (A) (A) (A) (A) (A) (A) (A) (A) (A) (A) (A) (A)
                 (A) (A) (A) (A) (A) (A) (A) (A) (A) (A) (A) (A)
 The electronic state is 1-A.
 Alpha  occ. eigenvalues --  -24.66798 -19.14491 -10.25138 -10.23452  -1.18271
 Alpha  occ. eigenvalues --   -1.02645  -0.74696  -0.62094  -0.52902  -0.50051
 Alpha  occ. eigenvalues --   -0.46497  -0.45442  -0.42259  -0.36539  -0.32943
 Alpha  occ. eigenvalues --   -0.32250  -0.27774
 Alpha virt. eigenvalues --    0.06142   0.10834   0.14464   0.14968   0.15689
 Alpha virt. eigenvalues --    0.20045   0.21682   0.24810   0.42993   0.46769
 Alpha virt. eigenvalues --    0.49808   0.51667   0.53626   0.62681   0.65660
 Alpha virt. eigenvalues --    0.66063   0.69364   0.71847   0.78301   0.78403
 Alpha virt. eigenvalues --    0.79747   0.85733   0.88472   0.88714   0.91674
 Alpha virt. eigenvalues --    0.93833   0.94960   0.99817   1.04593   1.06645
 Alpha virt. eigenvalues --    1.09276   1.11027   1.24572   1.26786   1.28765
 Alpha virt. eigenvalues --    1.37780   1.40767   1.41731   1.51244   1.56427
 Alpha virt. eigenvalues --    1.61456   1.61737   1.64644   1.72694   1.74143
 Alpha virt. eigenvalues --    1.90238   1.92975   2.02831   2.15919   2.18181
 Alpha virt. eigenvalues --    2.24415   2.42384   2.48193   2.52586   2.53285
 Alpha virt. eigenvalues --    2.58765   2.72429   2.74545   2.78952   2.85249
 Alpha virt. eigenvalues --    2.87661   2.88279   2.90446   2.96207   3.05771
 Alpha virt. eigenvalues --    3.16195   3.28519   3.30746   3.36853   3.39622
 Alpha virt. eigenvalues --    3.42108   3.44603   3.56705   3.68083   3.68731
 Alpha virt. eigenvalues --    3.85702   3.88483   3.90462   4.12023   4.17636
 Alpha virt. eigenvalues --    4.19414   4.29116   4.39846   4.41158   4.42043
 Alpha virt. eigenvalues --    4.44634   4.49825   4.49866   4.52275   4.54384
 Alpha virt. eigenvalues --    4.62765   4.63222   4.66865   4.70476   4.72096
 Alpha virt. eigenvalues --    4.78277   4.80996   4.86095   4.96518   5.22723
 Alpha virt. eigenvalues --    5.31190   5.39057   5.46539   5.48446   5.80393
 Alpha virt. eigenvalues --    5.91613   5.97287   6.07533   6.66739   6.67726
 Alpha virt. eigenvalues --    6.79225   6.80047   7.02193   7.25268   7.30545
 Alpha virt. eigenvalues --    7.35266   9.54461  11.08772  11.82955  13.14256
          Condensed to atoms (all electrons):
               1          2          3          4          5          6
     1  C    4.892957   0.358417   0.358453   0.354460  -0.041262  -0.041211
     2  H    0.358417   0.664269  -0.059686  -0.031933   0.007171  -0.009283
     3  H    0.358453  -0.059686   0.664281  -0.032095  -0.009250   0.007172
     4  C    0.354460  -0.031933  -0.032095   4.688795   0.354461   0.354361
     5  H   -0.041262   0.007171  -0.009250   0.354461   0.646587  -0.053938
     6  H   -0.041211  -0.009283   0.007172   0.354361  -0.053938   0.646697
     7  F   -0.032974   0.003301   0.003322   0.374710  -0.020839  -0.020824
     8  O    0.295508  -0.027605  -0.027640  -0.025191   0.006110   0.006118
     9  H   -0.044216  -0.003558  -0.003471   0.005400  -0.000212  -0.000212
               7          8          9
     1  C   -0.032974   0.295508  -0.044216
     2  H    0.003301  -0.027605  -0.003558
     3  H    0.003322  -0.027640  -0.003471
     4  C    0.374710  -0.025191   0.005400
     5  H   -0.020839   0.006110  -0.000212
     6  H   -0.020824   0.006118  -0.000212
     7  F    8.847605   0.000615  -0.000045
     8  O    0.000615   7.884238   0.304791
     9  H   -0.000045   0.304791   0.446716
 Mulliken charges:
               1
     1  C   -0.100132
     2  H    0.098905
     3  H    0.098914
     4  C   -0.042968
     5  H    0.111171
     6  H    0.111120
     7  F   -0.154872
     8  O   -0.416945
     9  H    0.294808
 Sum of Mulliken charges =  -0.00000
 Mulliken charges with hydrogens summed into heavy atoms:
               1
     1  C    0.097687
     4  C    0.179322
     7  F   -0.154872
     8  O   -0.122138
 APT charges:
               1
     1  C    0.464392
     2  H   -0.079628
     3  H   -0.079660
     4  C    0.570987
     5  H   -0.049344
     6  H   -0.049421
     7  F   -0.460117
     8  O   -0.562005
     9  H    0.244795
 Sum of APT charges =   0.00000
 APT charges with hydrogens summed into heavy atoms:
               1
     1  C    0.305105
     4  C    0.472222
     7  F   -0.460117
     8  O   -0.317209
 Electronic spatial extent (au):  <R**2>=            326.3985
 Charge=             -0.0000 electrons
 Dipole moment (field-independent basis, Debye):
    X=             -1.5613    Y=              0.7771    Z=              0.0066  Tot=              1.7441
 Quadrupole moment (field-independent basis, Debye-Ang):
   XX=            -24.0148   YY=            -22.9245   ZZ=            -23.1030
   XY=             -4.0375   XZ=             -0.0132   YZ=              0.0023
 Traceless Quadrupole moment (field-independent basis, Debye-Ang):
   XX=             -0.6674   YY=              0.4229   ZZ=              0.2445
   XY=             -4.0375   XZ=             -0.0132   YZ=              0.0023
 Octapole moment (field-independent basis, Debye-Ang**2):
  XXX=            -13.4446  YYY=              0.5271  ZZZ=             -0.0007  XYY=              2.0938
  XXY=              6.0880  XXZ=              0.0356  XZZ=              2.7432  YZZ=              0.1559
  YYZ=             -0.0020  XYZ=             -0.0041
 Hexadecapole moment (field-independent basis, Debye-Ang**3):
 XXXX=           -217.1889 YYYY=            -62.4917 ZZZZ=            -33.0997 XXXY=            -12.5874
 XXXZ=             -0.0922 YYYX=              2.5649 YYYZ=              0.0040 ZZZX=             -0.0080
 ZZZY=              0.0003 XXYY=            -51.4406 XXZZ=            -48.7115 YYZZ=            -14.5471
 XXYZ=              0.0116 YYXZ=             -0.0038 ZZXY=              0.2421
 N-N= 1.281051075902D+02 E-N=-8.558823528599D+02  KE= 2.526720815916D+02
  Exact polarizability:      31.159      -0.622      27.928      -0.006       0.003      25.815
 Approx polarizability:      39.544       1.393      37.947      -0.009       0.007      35.044
 Calling FoFJK, ICntrl=    100127 FMM=F ISym2X=0 I1Cent= 0 IOpClX= 0 NMat=1 NMatS=1 NMatT=0.
 Full mass-weighted force constant matrix:
 Low frequencies ---   -6.3765   -5.3047    0.0012    0.0013    0.0017    4.7267
 Low frequencies ---  120.4756  221.0581  281.4332
 Diagonal vibrational polarizability:
        7.4422712       2.4059426      94.8568834
 Harmonic frequencies (cm**-1), IR intensities (KM/Mole), Raman scattering
 activities (A**4/AMU), depolarization ratios for plane and unpolarized
 incident light, reduced masses (AMU), force constants (mDyne/A),
 and normal coordinates:
                      1                      2                      3
                      A                      A                      A
 Frequencies --    120.4755               221.0569               281.4332
 Red. masses --      3.3862                 1.0775                 3.8725
 Frc consts  --      0.0290                 0.0310                 0.1807
 IR Inten    --     20.1659               103.7037                10.9421
  Atom  AN      X      Y      Z        X      Y      Z        X      Y      Z
     1   6     0.00  -0.00  -0.21    -0.00   0.00  -0.05    -0.11   0.24   0.00
     2   1     0.22   0.15  -0.34     0.00   0.01  -0.07    -0.29   0.24   0.01
     3   1    -0.22  -0.15  -0.34    -0.00  -0.01  -0.07    -0.29   0.25  -0.01
     4   6    -0.00  -0.00  -0.23     0.00   0.00   0.00    -0.11   0.23  -0.00
     5   1     0.21   0.18  -0.38     0.04  -0.03   0.02    -0.30   0.23   0.01
     6   1    -0.21  -0.18  -0.37    -0.04   0.03   0.02    -0.30   0.23  -0.01
     7   9     0.00   0.00   0.18     0.00  -0.00   0.02     0.10  -0.18   0.00
     8   8    -0.00  -0.00   0.22    -0.00   0.00  -0.04     0.13  -0.17   0.00
     9   1     0.00   0.00  -0.10     0.00  -0.00   0.99    -0.11  -0.45  -0.00
                      4                      5                      6
                      A                      A                      A
 Frequencies --    470.8115               821.9855              1020.7562
 Red. masses --      7.9576                 1.0838                 2.5539
 Frc consts  --      1.0393                 0.4315                 1.5678
 IR Inten    --      1.3022                 0.8508                39.7687
  Atom  AN      X      Y      Z        X      Y      Z        X      Y      Z
     1   6    -0.23  -0.10   0.00    -0.00  -0.00  -0.05     0.13  -0.21  -0.00
     2   1    -0.33  -0.08  -0.01     0.20  -0.39   0.22     0.07  -0.20  -0.00
     3   1    -0.33  -0.08   0.01    -0.21   0.39   0.22     0.08  -0.20   0.00
     4   6     0.20   0.12  -0.00     0.00  -0.00  -0.06    -0.08   0.26   0.00
     5   1     0.28   0.11   0.01     0.21  -0.40   0.22    -0.22   0.26   0.01
     6   1     0.28   0.11  -0.01    -0.21   0.40   0.22    -0.22   0.26  -0.01
     7   9     0.40  -0.04  -0.00    -0.00  -0.00   0.01    -0.03  -0.04   0.00
     8   8    -0.43   0.02  -0.00     0.00   0.00   0.02    -0.02  -0.04  -0.00
     9   1    -0.23   0.27  -0.00     0.00   0.00  -0.04     0.47   0.56   0.00
                      7                      8                      9
                      A                      A                      A
 Frequencies --   1092.7108              1098.7336              1175.4709
 Red. masses --      5.7617                 5.8336                 1.5281
 Frc consts  --      4.0533                 4.1493                 1.2440
 IR Inten    --     43.4238               123.7705                 0.0928
  Atom  AN      X      Y      Z        X      Y      Z        X      Y      Z
     1   6     0.40   0.27   0.00     0.05   0.10   0.00    -0.00  -0.00   0.16
     2   1     0.47   0.17   0.03    -0.18   0.17  -0.02     0.35   0.41  -0.17
     3   1     0.46   0.17  -0.03    -0.18   0.17   0.02    -0.34  -0.41  -0.17
     4   6    -0.06  -0.07  -0.00     0.45   0.17  -0.00    -0.00   0.00  -0.13
     5   1    -0.22  -0.00  -0.03     0.49   0.09   0.03    -0.14  -0.35   0.13
     6   1    -0.22   0.00   0.03     0.49   0.09  -0.03     0.14   0.35   0.13
     7   9     0.02   0.05   0.00    -0.28  -0.18   0.00    -0.00  -0.00   0.03
     8   8    -0.30  -0.23  -0.00    -0.08  -0.03  -0.00     0.00   0.00  -0.05
     9   1    -0.17  -0.04  -0.00    -0.01   0.06   0.00    -0.00  -0.00   0.00
                     10                     11                     12
                      A                      A                      A
 Frequencies --   1231.7200              1247.6127              1297.9326
 Red. masses --      1.1562                 1.1801                 1.1032
 Frc consts  --      1.0335                 1.0823                 1.0950
 IR Inten    --      2.8328                39.8441                 0.0797
  Atom  AN      X      Y      Z        X      Y      Z        X      Y      Z
     1   6    -0.00  -0.00   0.04     0.01   0.06   0.00     0.00   0.00   0.07
     2   1     0.44   0.07  -0.04    -0.43   0.13  -0.01    -0.46   0.17  -0.02
     3   1    -0.44  -0.07  -0.04    -0.44   0.12   0.00     0.46  -0.17  -0.02
     4   6    -0.00   0.00   0.09     0.01  -0.09   0.00     0.00  -0.00  -0.06
     5   1     0.49   0.22  -0.08    -0.09  -0.09  -0.00     0.48  -0.14   0.02
     6   1    -0.49  -0.22  -0.08    -0.09  -0.09   0.00    -0.48   0.14   0.02
     7   9    -0.00  -0.00  -0.04     0.01   0.02  -0.00    -0.00  -0.00  -0.01
     8   8     0.00   0.00  -0.03     0.01  -0.04  -0.00    -0.00  -0.00   0.01
     9   1    -0.00  -0.00  -0.01     0.49   0.56   0.00     0.00   0.00   0.01
                     13                     14                     15
                      A                      A                      A
 Frequencies --   1397.1758              1476.7609              1520.1797
 Red. masses --      1.2845                 1.5434                 1.0818
 Frc consts  --      1.4774                 1.9831                 1.4730
 IR Inten    --      7.5788                 4.0728                 0.0266
  Atom  AN      X      Y      Z        X      Y      Z        X      Y      Z
     1   6    -0.06   0.06   0.00     0.17  -0.06  -0.00     0.02   0.04   0.00
     2   1     0.23   0.01   0.01    -0.51   0.10  -0.07    -0.11  -0.26   0.21
     3   1     0.23   0.01  -0.01    -0.51   0.10   0.07    -0.11  -0.26  -0.21
     4   6    -0.12   0.03   0.00    -0.11   0.03   0.00    -0.02  -0.07   0.00
     5   1     0.60  -0.09   0.04     0.32  -0.09   0.07     0.14   0.47  -0.37
     6   1     0.60  -0.09  -0.04     0.32  -0.10  -0.07     0.14   0.47   0.37
     7   9     0.01  -0.02   0.00     0.00  -0.01   0.00    -0.00  -0.01   0.00
     8   8     0.01  -0.05  -0.00    -0.01   0.05   0.00     0.00   0.01   0.00
     9   1     0.25   0.27   0.00    -0.28  -0.30  -0.00    -0.01  -0.01  -0.00
                     16                     17                     18
                      A                      A                      A
 Frequencies --   1534.0329              2980.7101              3013.0338
 Red. masses --      1.0869                 1.0544                 1.1067
 Frc consts  --      1.5070                 5.5193                 5.9196
 IR Inten    --      3.6920                48.9635                37.7872
  Atom  AN      X      Y      Z        X      Y      Z        X      Y      Z
     1   6    -0.01  -0.07  -0.00    -0.00  -0.06  -0.00     0.00   0.00  -0.09
     2   1     0.09   0.48  -0.37     0.05   0.39   0.59     0.04   0.41   0.55
     3   1     0.09   0.48   0.37     0.05   0.39  -0.58    -0.04  -0.41   0.56
     4   6    -0.01  -0.04   0.00    -0.00   0.00   0.00     0.00  -0.00   0.02
     5   1     0.04   0.27  -0.21    -0.00  -0.02  -0.03    -0.01  -0.08  -0.11
     6   1     0.04   0.27   0.21    -0.00  -0.02   0.03     0.01   0.08  -0.12
     7   9     0.00  -0.00   0.00     0.00   0.00  -0.00    -0.00  -0.00   0.00
     8   8    -0.00  -0.01  -0.00    -0.00  -0.00  -0.00     0.00   0.00   0.00
     9   1     0.01   0.01   0.00    -0.00  -0.01   0.00     0.00  -0.00   0.00
                     19                     20                     21
                      A                      A                      A
 Frequencies --   3033.5201              3085.0034              3842.5625
 Red. masses --      1.0552                 1.1106                 1.0666
 Frc consts  --      5.7208                 6.2276                 9.2792
 IR Inten    --     40.7686                55.7082                29.1703
  Atom  AN      X      Y      Z        X      Y      Z        X      Y      Z
     1   6     0.00   0.00  -0.00     0.00   0.00  -0.02     0.00   0.00   0.00
     2   1    -0.00  -0.02  -0.03     0.00   0.08   0.11     0.00   0.00  -0.00
     3   1    -0.00  -0.02   0.03    -0.00  -0.08   0.11     0.00   0.00   0.00
     4   6     0.00   0.07  -0.00    -0.00  -0.00  -0.09     0.00  -0.00   0.00
     5   1    -0.03  -0.39  -0.58     0.02   0.40   0.56     0.00  -0.00  -0.00
     6   1    -0.03  -0.39   0.59    -0.02  -0.40   0.56     0.00  -0.00   0.00
     7   9     0.00   0.00   0.00    -0.00  -0.00   0.00     0.00   0.00  -0.00
     8   8    -0.00  -0.00   0.00    -0.00   0.00   0.00    -0.05   0.04   0.00
     9   1    -0.00  -0.00  -0.00     0.00  -0.00   0.00     0.78  -0.62  -0.00

 -------------------
 - Thermochemistry -
 -------------------
 Temperature   298.150 Kelvin.  Pressure   1.00000 Atm.
 Atom     1 has atomic number  6 and mass  12.00000
 Atom     2 has atomic number  1 and mass   1.00783
 Atom     3 has atomic number  1 and mass   1.00783
 Atom     4 has atomic number  6 and mass  12.00000
 Atom     5 has atomic number  1 and mass   1.00783
 Atom     6 has atomic number  1 and mass   1.00783
 Atom     7 has atomic number  9 and mass  18.99840
 Atom     8 has atomic number  8 and mass  15.99491
 Atom     9 has atomic number  1 and mass   1.00783
 Molecular mass:    64.03244 amu.
 Principal axes and moments of inertia in atomic units:
                           1         2         3
     Eigenvalues --    57.70287 457.12869 492.03814
           X            0.99951  -0.03136  -0.00004
           Y            0.03136   0.99951   0.00004
           Z            0.00004  -0.00004   1.00000
 This molecule is an asymmetric top.
 Rotational symmetry number  1.
 Rotational temperatures (Kelvin)      1.50103     0.18947     0.17603
 Rotational constants (GHZ):          31.27645     3.94799     3.66789
 Zero-point vibrational energy     191185.3 (Joules/Mol)
                                   45.69437 (Kcal/Mol)
 Warning -- explicit consideration of   4 degrees of freedom as
           vibrations may cause significant error
 Vibrational temperatures:    173.34   318.05   404.92   677.39  1182.65
          (Kelvin)           1468.64  1572.17  1580.83  1691.24  1772.17
                             1795.04  1867.44  2010.22  2124.73  2187.20
                             2207.13  4288.58  4335.08  4364.56  4438.63
                             5528.59
 
 Zero-point correction=                           0.072819 (Hartree/Particle)
 Thermal correction to Energy=                    0.077803
 Thermal correction to Enthalpy=                  0.078748
 Thermal correction to Gibbs Free Energy=         0.045313
 Sum of electronic and zero-point Energies=           -254.208071
 Sum of electronic and thermal Energies=              -254.203087
 Sum of electronic and thermal Enthalpies=            -254.202142
 Sum of electronic and thermal Free Energies=         -254.235577
 
                     E (Thermal)             CV                S
                      KCal/Mol        Cal/Mol-Kelvin    Cal/Mol-Kelvin
 Total                   48.822             15.320             70.368
 Electronic               0.000              0.000              0.000
 Translational            0.889              2.981             38.389
 Rotational               0.889              2.981             24.077
 Vibrational             47.045              9.358              7.902
 Vibration     1          0.609              1.932              3.093
 Vibration     2          0.648              1.809              1.950
 Vibration     3          0.681              1.708              1.525
 Vibration     4          0.828              1.315              0.735
                       Q            Log10(Q)             Ln(Q)
 Total Bot       0.143658D-20        -20.842671        -47.992024
 Total V=0       0.448269D+13         12.651539         29.131244
 Vib (Bot)       0.174909D-32        -32.757188        -75.426213
 Vib (Bot)    1  0.169607D+01          0.229443          0.528313
 Vib (Bot)    2  0.894411D+00         -0.048463         -0.111590
 Vib (Bot)    3  0.682634D+00         -0.165812         -0.381796
 Vib (Bot)    4  0.358017D+00         -0.446096         -1.027174
 Vib (V=0)       0.545785D+01          0.737022          1.697055
 Vib (V=0)    1  0.226823D+01          0.355688          0.819001
 Vib (V=0)    2  0.152468D+01          0.183179          0.421785
 Vib (V=0)    3  0.134616D+01          0.129097          0.297257
 Vib (V=0)    4  0.111496D+01          0.047259          0.108819
 Electronic      0.100000D+01          0.000000          0.000000
 Translational   0.201397D+08          7.304054         16.818206
 Rotational      0.407815D+05          4.610463         10.615983
 ***** Axes restored to original set *****
 -------------------------------------------------------------------
 Center     Atomic                   Forces (Hartrees/Bohr)
 Number     Number              X              Y              Z
 -------------------------------------------------------------------
      1        6           0.000123723   -0.000025413   -0.000012581
      2        1          -0.000042053    0.000004286   -0.000029517
      3        1           0.000014907    0.000010048    0.000018084
      4        6           0.000001559    0.000112005   -0.000016804
      5        1          -0.000043056   -0.000008765    0.000002298
      6        1          -0.000008401   -0.000010078   -0.000014305
      7        9           0.000055926   -0.000026323    0.000020194
      8        8          -0.000109068   -0.000031839    0.000040118
      9        1           0.000006463   -0.000023921   -0.000007486
 -------------------------------------------------------------------
 Cartesian Forces:  Max     0.000123723 RMS     0.000044713

 GradGradGradGradGradGradGradGradGradGradGradGradGradGradGradGradGradGrad
 Berny optimization.
 Search for a local minimum.
 Step number   1 out of a maximum of    2
 All quantities printed in internal units (Hartrees-Bohrs-Radians)
 Second derivative matrix not updated -- analytic derivatives used.
 ITU=  0
     Eigenvalues ---    0.00229   0.00268   0.01410   0.03033   0.04995
     Eigenvalues ---    0.06691   0.07628   0.08293   0.11899   0.11965
     Eigenvalues ---    0.15384   0.17172   0.21578   0.31102   0.47327
     Eigenvalues ---    0.66968   0.73897   0.75001   0.83119   0.84226
     Eigenvalues ---    1.04574
 Angle between quadratic step and forces=  74.50 degrees.
 Linear search not attempted -- first point.
 B after Tr=     0.000279   -0.000155    0.000477
         Rot=    1.000000    0.000034   -0.000062    0.000026 Ang=   0.01 deg.
 Variable       Old X    -DE/DX   Delta X   Delta X   Delta X     New X
                                 (Linear)    (Quad)   (Total)
    X1       -1.04475   0.00012   0.00000   0.00008   0.00041  -1.04434
    Y1        0.94271  -0.00003   0.00000   0.00056   0.00046   0.94317
    Z1        0.00031  -0.00001   0.00000   0.00006   0.00060   0.00090
    X2       -0.88148  -0.00004   0.00000  -0.00027   0.00033  -0.88115
    Y2        2.15801   0.00000   0.00000   0.00156   0.00156   2.15958
    Z2        1.68044  -0.00003   0.00000  -0.00073  -0.00029   1.68015
    X3       -0.88074   0.00001   0.00000  -0.00132  -0.00114  -0.88188
    Y3        2.15906   0.00001   0.00000  -0.00002  -0.00025   2.15882
    Z3       -1.67895   0.00002   0.00000  -0.00045  -0.00001  -1.67896
    X4        1.12275   0.00000   0.00000  -0.00002   0.00021   1.12296
    Y4       -0.94509   0.00011   0.00000   0.00074   0.00053  -0.94456
    Z4        0.00094  -0.00002   0.00000  -0.00048  -0.00008   0.00086
    X5        1.02860  -0.00004   0.00000  -0.00097  -0.00101   1.02758
    Y5       -2.15074  -0.00001   0.00000   0.00156   0.00124  -2.14950
    Z5       -1.68119   0.00000   0.00000  -0.00106  -0.00056  -1.68175
    X6        1.02908  -0.00001   0.00000  -0.00112  -0.00075   1.02833
    Y6       -2.14821  -0.00001   0.00000  -0.00042  -0.00051  -2.14872
    Z6        1.68495  -0.00001   0.00000  -0.00137  -0.00087   1.68407
    X7        3.37921   0.00006   0.00000   0.00092   0.00121   3.38043
    Y7        0.35602  -0.00003   0.00000  -0.00099  -0.00132   0.35470
    Z7       -0.00070   0.00002   0.00000   0.00073   0.00077   0.00006
    X8       -3.30816  -0.00011   0.00000   0.00034   0.00059  -3.30757
    Y8       -0.48454  -0.00003   0.00000  -0.00059  -0.00057  -0.48511
    Z8       -0.00135   0.00004   0.00000   0.00215   0.00307   0.00172
    X9       -4.71109   0.00001   0.00000  -0.00017   0.00015  -4.71095
    Y9        0.66828  -0.00002   0.00000  -0.00123  -0.00114   0.66714
    Z9        0.00445  -0.00001   0.00000  -0.00364  -0.00263   0.00183
         Item               Value     Threshold  Converged?
 Maximum Force            0.000124     0.000450     YES
 RMS     Force            0.000045     0.000300     YES
 Maximum Displacement     0.003070     0.001800     NO 
 RMS     Displacement     0.001082     0.001200     YES
 Predicted change in Energy=-1.863236D-07
 GradGradGradGradGradGradGradGradGradGradGradGradGradGradGradGradGradGrad


 ----------------------------------------------------------------------

 Electric dipole moment (input orientation):
 (Debye = 10**-18 statcoulomb cm , SI units = C m)
                  (au)            (Debye)         (10**-30 SI)
   Tot        0.686166D+00      0.174406D+01      0.581755D+01
   x         -0.614273D+00     -0.156133D+01     -0.520803D+01
   y          0.305753D+00      0.777146D+00      0.259228D+01
   z          0.257720D-02      0.655058D-02      0.218504D-01

 Dipole polarizability, Alpha (input orientation).
 (esu units = cm**3 , SI units = C**2 m**2 J**-1)
 Alpha(0;0):
               (au)            (10**-24 esu)      (10**-40 SI)
   iso        0.283005D+02      0.419370D+01      0.466612D+01
   aniso      0.478426D+01      0.708955D+00      0.788818D+00
   xx         0.311585D+02      0.461722D+01      0.513735D+01
   yx        -0.621998D+00     -0.921706D-01     -0.102554D+00
   yy         0.279281D+02      0.413852D+01      0.460473D+01
   zx        -0.577045D-02     -0.855092D-03     -0.951418D-03
   zy         0.254451D-02      0.377057D-03      0.419533D-03
   zz         0.258148D+02      0.382536D+01      0.425629D+01

 ----------------------------------------------------------------------

 Dipole orientation:
     6          0.16433500          0.34089512          1.35536050
     1          2.18432162          0.63202125          1.75703390
     1         -0.82251929          2.13008256          1.74422383
     6         -0.14843967         -0.31235698         -1.42623969
     1         -2.15245007         -0.56738461         -1.88550295
     1          0.86210424         -2.06509752         -1.87216299
     9          0.82200054          1.62886277         -2.86652141
     8         -0.86059916         -1.70280583          2.74563557
     1         -0.68003744         -1.33816346          4.51529660

 Electric dipole moment (dipole orientation):
 (Debye = 10**-18 statcoulomb cm , SI units = C m)
                  (au)            (Debye)         (10**-30 SI)
   Tot        0.686166D+00      0.174406D+01      0.581755D+01
   x          0.000000D+00      0.000000D+00      0.000000D+00
   y          0.000000D+00      0.000000D+00      0.000000D+00
   z          0.686166D+00      0.174406D+01      0.581755D+01

 Dipole polarizability, Alpha (dipole orientation).
 (esu units = cm**3 , SI units = C**2 m**2 J**-1)
 Alpha(0;0):
               (au)            (10**-24 esu)      (10**-40 SI)
   iso        0.283005D+02      0.419370D+01      0.466612D+01
   aniso      0.478426D+01      0.708955D+00      0.788818D+00
   xx         0.262658D+02      0.389219D+01      0.433064D+01
   yx         0.902825D+00      0.133785D+00      0.148856D+00
   yy         0.276224D+02      0.409321D+01      0.455431D+01
   zx        -0.418965D+00     -0.620843D-01     -0.690781D-01
   zy        -0.812043D+00     -0.120332D+00     -0.133888D+00
   zz         0.310133D+02      0.459570D+01      0.511341D+01

 ----------------------------------------------------------------------
 Unable to Open any file for archive entry.
 1\1\GINC-COMPUTE-2-1\Freq\RB3LYP\6-31G(2df,p)\C2H5F1O1\JINGDAN2\05-Dec
 -2024\0\\# freq b3lyp/6-31g(2df,p)\\energy: -15.614184499692 gnorm: 0.
 000439253721 xtb: 6.6.1 (8d0f1dd)\\0,1\C,-0.552859,0.498863,0.000162\H
 ,-0.466457,1.141971,0.889248\H,-0.466067,1.142526,-0.88846\C,0.594134,
 -0.500119,0.000498\H,0.54431,-1.138123,-0.889646\H,0.544565,-1.136783,
 0.891635\F,1.788202,0.188397,-0.000373\O,-1.750602,-0.256408,-0.000717
 \H,-2.493004,0.35364,0.002356\\Version=ES64L-G16RevC.01\State=1-A\HF=-
 254.2808899\RMSD=2.594e-09\RMSF=4.471e-05\ZeroPoint=0.0728186\Thermal=
 0.0778034\ETot=-254.2030865\HTot=-254.2021424\GTot=-254.2355766\Dipole
 =-0.6142735,0.3057527,0.0025772\DipoleDeriv=0.6527813,0.2049873,-0.000
 1154,0.289926,0.3370202,-0.0003067,0.0001065,-0.0002121,0.4033745,-0.0
 443882,-0.006651,-0.0069238,-0.0355985,-0.0734953,-0.0937846,-0.023642
 9,-0.1239074,-0.1209994,-0.0443794,-0.0067575,0.0070399,-0.0356739,-0.
 0737339,0.0938682,0.0237801,0.1239595,-0.1208652,0.8094118,0.1789175,-
 0.0002819,0.2006257,0.4873514,-0.0001403,-0.0003541,-0.0000345,0.41619
 8,-0.0097899,0.005063,0.0114647,-0.0059379,-0.0460273,-0.0730995,-0.00
 40771,-0.1096416,-0.0922151,-0.0098499,0.0050874,-0.011459,-0.0058568,
 -0.0458612,0.0730399,0.0040374,0.1096185,-0.0925526,-0.7730195,-0.1952
 66,0.000302,-0.2324241,-0.3711474,0.0001842,0.0003362,0.0001543,-0.236
 185,-0.8100144,-0.2390738,-0.000282,-0.247064,-0.3873418,0.0008261,-0.
 0003797,0.0004851,-0.4886579,0.2292482,0.0536933,0.0002555,0.0720035,0
 .1732353,-0.0005874,0.0001936,-0.0004217,0.3319026\Polar=31.1585322,-0
 .621998,27.928131,-0.0057704,0.0025445,25.8148213\Quadrupole=-0.496191
 9,0.314424,0.1817679,-3.0018165,-0.0098263,0.0016799\PG=C01 [X(C2H5F1O
 1)]\NImag=0\\0.48341478,-0.00757532,0.54759990,-0.00009501,0.00000999,
 0.58704581,-0.05088243,-0.00152424,-0.00635062,0.05918041,-0.00307654,
 -0.12505383,-0.10633734,0.01207729,0.14218658,-0.00643549,-0.10948748,
 -0.21958767,0.01207360,0.12382106,0.23047053,-0.05084994,-0.00154763,0
 .00644496,0.00370079,0.00144358,0.00046925,0.05919800,-0.00307561,-0.1
 2519740,0.10641799,0.00145795,0.01063266,-0.01478947,0.01217162,0.1423
 4543,0.00652318,0.10954405,-0.21946951,-0.00044989,0.01480333,-0.02251
 653,-0.01215674,-0.12388687,0.23032512,-0.11837088,0.07158214,-0.00002
 919,0.00132015,-0.00006408,-0.00145043,0.00132809,-0.00008664,0.001449
 89,0.47498497,0.07335281,-0.15265610,0.00000014,0.01646248,-0.01556272
 ,0.00012745,0.01644969,-0.01555159,-0.00011826,0.00680920,0.54893181,-
 0.00003273,0.00001971,-0.08525315,0.02242237,-0.02190744,-0.00038682,-
 0.02240986,0.02190723,-0.00039036,0.00000133,0.00008575,0.61804708,0.0
 0154055,0.01600376,0.02187761,-0.00457909,0.00320267,-0.00029438,0.001
 23166,-0.00092163,-0.00050505,-0.04984158,0.00325132,0.00266761,0.0597
 4495,0.00154939,-0.01408152,-0.02158634,0.00322566,-0.00238351,0.00018
 415,-0.00101023,0.00097038,0.00011312,0.00027049,-0.12949732,-0.111411
 75,0.00843849,0.14548466,-0.00164873,0.00097248,0.00039013,-0.00022991
 ,0.00029011,0.00162939,0.00048089,-0.00012253,0.00124022,-0.00247617,-
 0.11673053,-0.23102804,0.00650476,0.13004172,0.23969300,0.00153011,0.0
 1599142,-0.02189940,0.00123406,-0.00092326,0.00050442,-0.00457844,0.00
 320084,0.00029225,-0.04984853,0.00326782,-0.00273041,0.00406803,0.0014
 1792,0.00102102,0.05973928,0.00156773,-0.01407008,0.02160472,-0.001011
 95,0.00097087,-0.00011129,0.00322619,-0.00238537,-0.00018090,0.0003015
 7,-0.12913077,0.11123804,0.00140854,0.01127164,-0.01497339,0.00836688,
 0.14508449,0.00165444,-0.00096410,0.00036664,-0.00047913,0.00012059,0.
 00124583,0.00022816,-0.00028936,0.00162932,0.00240534,0.11656561,-0.23
 135835,-0.00103486,0.01492655,-0.02069664,-0.00646053,-0.12987902,0.24
 007108,-0.04106160,-0.03198104,0.00002253,0.00241897,-0.00016282,0.001
 39944,0.00242461,-0.00016889,-0.00139897,-0.21822591,-0.08738464,0.000
 09075,-0.01500441,-0.01350930,-0.00472181,-0.01497894,-0.01348183,0.00
 475702,0.29764041,0.00766617,0.01207350,-0.00000178,-0.00149547,0.0023
 4792,0.00094012,-0.00149428,0.00235404,-0.00094317,-0.08955195,-0.1192
 0602,0.00005912,-0.03006334,-0.01351861,-0.00013837,-0.03000594,-0.013
 49156,0.00018210,0.13861865,0.12996783,0.00000389,0.00000651,0.0020768
 9,-0.00119789,0.00178596,0.00046546,0.00119353,-0.00179062,0.00046622,
 0.00010784,0.00006267,-0.07076008,-0.02791875,-0.01363415,0.00835665,0
 .02797109,0.01366802,0.00832322,-0.00015730,-0.00009550,0.04862965,-0.
 19291219,-0.08701880,-0.00008984,-0.01447211,-0.01318694,-0.00545173,-
 0.01450568,-0.01326247,0.00543890,-0.03791397,-0.02535266,-0.00000962,
 0.00233706,-0.00026422,0.00090415,0.00233444,-0.00026245,-0.00090454,-
 0.01100808,0.00533090,-0.00000037,0.58041815,-0.04131304,-0.14026677,-
 0.00018194,-0.02846334,-0.01325896,-0.00027269,-0.02850956,-0.01327716
 ,0.00025685,0.01258202,0.01544495,0.00001001,-0.00123808,0.00158898,0.
 00042455,-0.00123388,0.00158823,-0.00042898,0.00999370,-0.00100766,-0.
 00000275,-0.13235412,0.39611394,0.00011507,-0.00010786,-0.06398047,-0.
 02514427,-0.01361333,0.00825479,0.02510212,0.01358360,0.00831075,0.000
 00480,0.00001967,0.00191835,-0.00116925,0.00109622,0.00031374,0.001173
 16,-0.00109976,0.00031850,0.00002383,-0.00000525,0.00170696,-0.0012530
 2,0.00132688,0.04432393,-0.03240839,0.02606970,0.00011895,0.00207924,0
 .00069008,-0.00081469,0.00205091,0.00068482,0.00080643,-0.00343234,-0.
 00685603,0.00000056,0.00050283,-0.00011822,0.00016580,0.00049998,-0.00
 011467,-0.00016591,-0.00220505,0.00099526,-0.00000202,-0.31427762,0.21
 053631,0.00114757,0.34719043,-0.02909560,0.01165230,0.00007457,-0.0007
 2837,0.00012098,-0.00041185,-0.00072938,0.00010901,0.00041184,-0.00184
 276,-0.00277224,-0.00000069,-0.00008174,0.00016530,0.00023596,-0.00008
 181,0.00016255,-0.00023338,-0.00192384,0.00048056,-0.00000014,0.266370
 75,-0.24692553,-0.00120017,-0.23188725,0.23700708,-0.00008463,0.000006
 70,-0.00158866,-0.00064426,0.00103705,0.00042502,0.00064769,-0.0010299
 7,0.00040477,-0.00001341,-0.00001251,-0.00078863,-0.00012770,0.0002704
 8,0.00010156,0.00012839,-0.00026642,0.00010040,-0.00001549,0.00000273,
 0.00073502,0.00136610,-0.00113192,-0.00116655,-0.00125669,0.00112387,0
 .00177708\\-0.00012372,0.00002541,0.00001258,0.00004205,-0.00000429,0.
 00002952,-0.00001491,-0.00001005,-0.00001808,-0.00000156,-0.00011201,0
 .00001680,0.00004306,0.00000877,-0.00000230,0.00000840,0.00001008,0.00
 001431,-0.00005593,0.00002632,-0.00002019,0.00010907,0.00003184,-0.000
 04012,-0.00000646,0.00002392,0.00000749\\\@
 The archive entry for this job was punched.


      LET US REMEMBER, PLEASE, THAT THE SEARCH FOR THE CONSTITUTION
      OF THE WORLD IS ONE OF THE GREATEST AND NOBLEST PROBLEMS PRESENTED 
      BY NATURE.

                                                  -- GALILEO
 Job cpu time:       0 days  0 hours  6 minutes 43.1 seconds.
 Elapsed time:       0 days  0 hours  0 minutes 51.5 seconds.
 File lengths (MBytes):  RWF=     21 Int=      0 D2E=      0 Chk=      2 Scr=      1
 Normal termination of Gaussian 16 at Thu Dec  5 18:23:56 2024.
