 Entering Gaussian System, Link 0=g16
 Input=rotation_std22.gjf
 Output=rotation_std22.log
 Initial command:
 /share/apps/gaussian/g16/l1.exe "/scratch/jingdan2/247450/Gau-451876.inp" -scrdir="/scratch/jingdan2/247450/"
 Entering Link 1 = /share/apps/gaussian/g16/l1.exe PID=    451881.
  
 Copyright (c) 1988-2019, Gaussian, Inc.  All Rights Reserved.
  
 This is part of the Gaussian(R) 16 program.  It is based on
 the Gaussian(R) 09 system (copyright 2009, Gaussian, Inc.),
 the Gaussian(R) 03 system (copyright 2003, Gaussian, Inc.),
 the Gaussian(R) 98 system (copyright 1998, Gaussian, Inc.),
 the Gaussian(R) 94 system (copyright 1995, Gaussian, Inc.),
 the Gaussian 92(TM) system (copyright 1992, Gaussian, Inc.),
 the Gaussian 90(TM) system (copyright 1990, Gaussian, Inc.),
 the Gaussian 88(TM) system (copyright 1988, Gaussian, Inc.),
 the Gaussian 86(TM) system (copyright 1986, Carnegie Mellon
 University), and the Gaussian 82(TM) system (copyright 1983,
 Carnegie Mellon University). Gaussian is a federally registered
 trademark of Gaussian, Inc.
  
 This software contains proprietary and confidential information,
 including trade secrets, belonging to Gaussian, Inc.
  
 This software is provided under written license and may be
 used, copied, transmitted, or stored only in accord with that
 written license.
  
 The following legend is applicable only to US Government
 contracts under FAR:
  
                    RESTRICTED RIGHTS LEGEND
  
 Use, reproduction and disclosure by the US Government is
 subject to restrictions as set forth in subparagraphs (a)
 and (c) of the Commercial Computer Software - Restricted
 Rights clause in FAR 52.227-19.
  
 Gaussian, Inc.
 340 Quinnipiac St., Bldg. 40, Wallingford CT 06492
  
  
 ---------------------------------------------------------------
 Warning -- This program may not be used in any manner that
 competes with the business of Gaussian, Inc. or will provide
 assistance to any competitor of Gaussian, Inc.  The licensee
 of this program is prohibited from giving any competitor of
 Gaussian, Inc. access to this program.  By using this program,
 the user acknowledges that Gaussian, Inc. is engaged in the
 business of creating and licensing software in the field of
 computational chemistry and represents and warrants to the
 licensee that it is not a competitor of Gaussian, Inc. and that
 it will not use this program in any manner prohibited above.
 ---------------------------------------------------------------
  

 Cite this work as:
 Gaussian 16, Revision C.01,
 M. J. Frisch, G. W. Trucks, H. B. Schlegel, G. E. Scuseria, 
 M. A. Robb, J. R. Cheeseman, G. Scalmani, V. Barone, 
 G. A. Petersson, H. Nakatsuji, X. Li, M. Caricato, A. V. Marenich, 
 J. Bloino, B. G. Janesko, R. Gomperts, B. Mennucci, H. P. Hratchian, 
 J. V. Ortiz, A. F. Izmaylov, J. L. Sonnenberg, D. Williams-Young, 
 F. Ding, F. Lipparini, F. Egidi, J. Goings, B. Peng, A. Petrone, 
 T. Henderson, D. Ranasinghe, V. G. Zakrzewski, J. Gao, N. Rega, 
 G. Zheng, W. Liang, M. Hada, M. Ehara, K. Toyota, R. Fukuda, 
 J. Hasegawa, M. Ishida, T. Nakajima, Y. Honda, O. Kitao, H. Nakai, 
 T. Vreven, K. Throssell, J. A. Montgomery, Jr., J. E. Peralta, 
 F. Ogliaro, M. J. Bearpark, J. J. Heyd, E. N. Brothers, K. N. Kudin, 
 V. N. Staroverov, T. A. Keith, R. Kobayashi, J. Normand, 
 K. Raghavachari, A. P. Rendell, J. C. Burant, S. S. Iyengar, 
 J. Tomasi, M. Cossi, J. M. Millam, M. Klene, C. Adamo, R. Cammi, 
 J. W. Ochterski, R. L. Martin, K. Morokuma, O. Farkas, 
 J. B. Foresman, and D. J. Fox, Gaussian, Inc., Wallingford CT, 2019.
 
 ******************************************
 Gaussian 16:  ES64L-G16RevC.01  3-Jul-2019
                 5-Dec-2024 
 ******************************************
 %nprocshared=8
 Will use up to    8 processors via shared memory.
 %mem=8GB
 -------------------------
 # freq b3lyp/6-31g(2df,p)
 -------------------------
 1/10=4,30=1,38=1/1,3;
 2/12=2,17=6,18=5,40=1/2;
 3/5=1,6=6,7=104,11=2,25=1,30=1,71=2,74=-5,140=1/1,2,3;
 4//1;
 5/5=2,38=5,98=1/2;
 8/6=4,10=90,11=11/1;
 11/6=1,8=1,9=11,15=111,16=1/1,2,10;
 10/6=1/2;
 6/7=2,8=2,9=2,10=2,28=1/1;
 7/8=1,10=1,25=1/1,2,3,16;
 1/10=4,30=1/3;
 99//99;
 -------------------------------------------------------------------
 energy: -15.614184499692 gnorm: 0.000439253721 xtb: 6.6.1 (8d0f1dd)
 -------------------------------------------------------------------
 Symbolic Z-matrix:
 Charge =  0 Multiplicity = 1
 C                    -0.71524   0.63793  -0.13748 
 H                    -1.15333   1.42526   0.49605 
 H                    -0.88302   0.93174  -1.18655 
 C                     0.79273   0.57896   0.1437 
 H                     0.98923   0.8027    1.20031 
 H                     1.32242   1.31712  -0.47111 
 F                     1.28854  -0.67584  -0.10465 
 O                    -1.26483  -0.64009   0.10762 
 H                    -2.21849  -0.57488   0.00491 
 

 GradGradGradGradGradGradGradGradGradGradGradGradGradGradGradGradGradGrad
 Berny optimization.
 Initialization pass.
 Trust Radius=3.00D-01 FncErr=1.00D-07 GrdErr=1.00D-07 EigMax=2.50D+02 EigMin=1.00D-04
 Number of steps in this run=      2 maximum allowed number of steps=      2.
 GradGradGradGradGradGradGradGradGradGradGradGradGradGradGradGradGradGrad

                          Input orientation:                          
 ---------------------------------------------------------------------
 Center     Atomic      Atomic             Coordinates (Angstroms)
 Number     Number       Type             X           Y           Z
 ---------------------------------------------------------------------
      1          6           0       -0.715241    0.637928   -0.137483
      2          1           0       -1.153330    1.425264    0.496050
      3          1           0       -0.883020    0.931742   -1.186547
      4          6           0        0.792733    0.578963    0.143695
      5          1           0        0.989231    0.802704    1.200310
      6          1           0        1.322416    1.317118   -0.471111
      7          9           0        1.288542   -0.675841   -0.104650
      8          8           0       -1.264830   -0.640091    0.107620
      9          1           0       -2.218494   -0.574877    0.004912
 ---------------------------------------------------------------------
                    Distance matrix (angstroms):
                    1          2          3          4          5
     1  C    0.000000
     2  H    1.101446   0.000000
     3  H    1.102276   1.774194   0.000000
     4  C    1.535097   2.151172   2.168443   0.000000
     5  H    2.173032   2.339686   3.036291   1.097774   0.000000
     6  H    2.173627   2.660153   2.350385   1.097007   1.780248
     7  F    2.396292   3.276923   2.910413   1.371873   1.994644
     8  O    1.412606   2.104519   2.071547   2.391853   2.890747
     9  H    1.936735   2.318697   2.339437   3.227707   3.690014
                    6          7          8          9
     6  H    0.000000
     7  F    2.026654   0.000000
     8  O    3.295366   2.562430   0.000000
     9  H    4.042807   3.510199   0.961393   0.000000
 Stoichiometry    C2H5FO
 Framework group  C1[X(C2H5FO)]
 Deg. of freedom    21
 Full point group                 C1      NOp   1
 Largest Abelian subgroup         C1      NOp   1
 Largest concise Abelian subgroup C1      NOp   1
                         Standard orientation:                         
 ---------------------------------------------------------------------
 Center     Atomic      Atomic             Coordinates (Angstroms)
 Number     Number       Type             X           Y           Z
 ---------------------------------------------------------------------
      1          6           0       -0.715241    0.637928   -0.137483
      2          1           0       -1.153330    1.425264    0.496050
      3          1           0       -0.883020    0.931742   -1.186547
      4          6           0        0.792733    0.578963    0.143695
      5          1           0        0.989231    0.802704    1.200310
      6          1           0        1.322416    1.317118   -0.471111
      7          9           0        1.288542   -0.675841   -0.104650
      8          8           0       -1.264830   -0.640091    0.107620
      9          1           0       -2.218494   -0.574877    0.004912
 ---------------------------------------------------------------------
 Rotational constants (GHZ):          15.0482911           5.9616045           4.5955714
 Standard basis: 6-31G(2df,p) (6D, 7F)
 There are   149 symmetry adapted cartesian basis functions of A   symmetry.
 There are   137 symmetry adapted basis functions of A   symmetry.
   137 basis functions,   211 primitive gaussians,   149 cartesian basis functions
    17 alpha electrons       17 beta electrons
       nuclear repulsion energy       131.2098075982 Hartrees.
 NAtoms=    9 NActive=    9 NUniq=    9 SFac= 1.00D+00 NAtFMM=   60 NAOKFM=F Big=F
 Integral buffers will be    131072 words long.
 Raffenetti 2 integral format.
 Two-electron integral symmetry is turned on.
 One-electron integrals computed using PRISM.
 NBasis=   137 RedAO= T EigKep=  1.25D-03  NBF=   137
 NBsUse=   137 1.00D-06 EigRej= -1.00D+00 NBFU=   137
 ExpMin= 1.61D-01 ExpMax= 7.00D+03 ExpMxC= 1.05D+03 IAcc=3 IRadAn=         5 AccDes= 0.00D+00
 Harris functional with IExCor=  402 and IRadAn=       5 diagonalized for initial guess.
 HarFok:  IExCor=  402 AccDes= 0.00D+00 IRadAn=         5 IDoV= 1 UseB2=F ITyADJ=14
 ICtDFT=  3500011 ScaDFX=  1.000000  1.000000  1.000000  1.000000
 FoFCou: FMM=F IPFlag=           0 FMFlag=      100000 FMFlg1=           0
         NFxFlg=           0 DoJE=T BraDBF=F KetDBF=T FulRan=T
         wScrn=  0.000000 ICntrl=       500 IOpCl=  0 I1Cent=   200000004 NGrid=           0
         NMat0=    1 NMatS0=      1 NMatT0=    0 NMatD0=    1 NMtDS0=    0 NMtDT0=    0
 Petite list used in FoFCou.
 Keep R1 ints in memory in canonical form, NReq=52495207.
 Requested convergence on RMS density matrix=1.00D-08 within 128 cycles.
 Requested convergence on MAX density matrix=1.00D-06.
 Requested convergence on             energy=1.00D-06.
 No special actions if energy rises.
 Integral accuracy reduced to 1.0D-05 until final iterations.
 Initial convergence to 1.0D-05 achieved.  Increase integral accuracy.
 SCF Done:  E(RB3LYP) =  -254.274719403     A.U. after   12 cycles
            NFock= 12  Conv=0.45D-08     -V/T= 2.0064
 DoSCS=F DFT=T ScalE2(SS,OS)=  1.000000  1.000000
 Range of M.O.s used for correlation:     1   137
 NBasis=   137 NAE=    17 NBE=    17 NFC=     0 NFV=     0
 NROrb=    137 NOA=    17 NOB=    17 NVA=   120 NVB=   120

 **** Warning!!: The largest alpha MO coefficient is  0.18583178D+02

 Symmetrizing basis deriv contribution to polar:
 IMax=3 JMax=2 DiffMx= 0.00D+00
 G2DrvN: will do    10 centers at a time, making    1 passes.
 Calling FoFCou, ICntrl=  3107 FMM=F I1Cent=   0 AccDes= 0.00D+00.
 End of G2Drv F.D. properties file   721 does not exist.
 End of G2Drv F.D. properties file   722 does not exist.
 End of G2Drv F.D. properties file   788 does not exist.
          IDoAtm=111111111
          Differentiating once with respect to electric field.
                with respect to dipole field.
          Differentiating once with respect to nuclear coordinates.
 Keep R1 ints in memory in canonical form, NReq=52475930.
          There are    30 degrees of freedom in the 1st order CPHF.  IDoFFX=6 NUNeed=     3.
     27 vectors produced by pass  0 Test12= 6.80D-15 3.33D-09 XBig12= 1.58D+01 1.40D+00.
 AX will form    27 AO Fock derivatives at one time.
     27 vectors produced by pass  1 Test12= 6.80D-15 3.33D-09 XBig12= 1.32D+00 1.89D-01.
     27 vectors produced by pass  2 Test12= 6.80D-15 3.33D-09 XBig12= 1.59D-02 3.69D-02.
     27 vectors produced by pass  3 Test12= 6.80D-15 3.33D-09 XBig12= 5.05D-05 1.12D-03.
     27 vectors produced by pass  4 Test12= 6.80D-15 3.33D-09 XBig12= 7.19D-08 4.60D-05.
     16 vectors produced by pass  5 Test12= 6.80D-15 3.33D-09 XBig12= 5.21D-11 9.61D-07.
      3 vectors produced by pass  6 Test12= 6.80D-15 3.33D-09 XBig12= 3.92D-14 3.69D-08.
 InvSVY:  IOpt=1 It=  1 EMax= 2.22D-15
 Solved reduced A of dimension   154 with    30 vectors.
 Isotropic polarizability for W=    0.000000       28.49 Bohr**3.
 End of Minotr F.D. properties file   721 does not exist.
 End of Minotr F.D. properties file   722 does not exist.
 End of Minotr F.D. properties file   788 does not exist.

 **********************************************************************

            Population analysis using the SCF Density.

 **********************************************************************

 Orbital symmetries:
       Occupied  (A) (A) (A) (A) (A) (A) (A) (A) (A) (A) (A) (A)
                 (A) (A) (A) (A) (A)
       Virtual   (A) (A) (A) (A) (A) (A) (A) (A) (A) (A) (A) (A)
                 (A) (A) (A) (A) (A) (A) (A) (A) (A) (A) (A) (A)
                 (A) (A) (A) (A) (A) (A) (A) (A) (A) (A) (A) (A)
                 (A) (A) (A) (A) (A) (A) (A) (A) (A) (A) (A) (A)
                 (A) (A) (A) (A) (A) (A) (A) (A) (A) (A) (A) (A)
                 (A) (A) (A) (A) (A) (A) (A) (A) (A) (A) (A) (A)
                 (A) (A) (A) (A) (A) (A) (A) (A) (A) (A) (A) (A)
                 (A) (A) (A) (A) (A) (A) (A) (A) (A) (A) (A) (A)
                 (A) (A) (A) (A) (A) (A) (A) (A) (A) (A) (A) (A)
                 (A) (A) (A) (A) (A) (A) (A) (A) (A) (A) (A) (A)
 The electronic state is 1-A.
 Alpha  occ. eigenvalues --  -24.66161 -19.13865 -10.25308 -10.23577  -1.17832
 Alpha  occ. eigenvalues --   -1.02088  -0.74681  -0.61761  -0.52867  -0.49679
 Alpha  occ. eigenvalues --   -0.46616  -0.44645  -0.42275  -0.35733  -0.32728
 Alpha  occ. eigenvalues --   -0.32005  -0.26982
 Alpha virt. eigenvalues --    0.06408   0.11026   0.12647   0.13738   0.16421
 Alpha virt. eigenvalues --    0.20370   0.22453   0.24519   0.42656   0.47609
 Alpha virt. eigenvalues --    0.49097   0.50375   0.54059   0.60453   0.65520
 Alpha virt. eigenvalues --    0.68716   0.70691   0.72026   0.75578   0.78925
 Alpha virt. eigenvalues --    0.81705   0.84109   0.88304   0.89228   0.90553
 Alpha virt. eigenvalues --    0.93566   0.95210   1.02059   1.05563   1.07573
 Alpha virt. eigenvalues --    1.10979   1.14195   1.23414   1.27683   1.34532
 Alpha virt. eigenvalues --    1.36664   1.40402   1.45249   1.52931   1.53610
 Alpha virt. eigenvalues --    1.59089   1.62796   1.65944   1.72243   1.75342
 Alpha virt. eigenvalues --    1.89343   1.96245   2.07959   2.11841   2.18993
 Alpha virt. eigenvalues --    2.29730   2.38003   2.42869   2.49930   2.53878
 Alpha virt. eigenvalues --    2.59191   2.62055   2.66140   2.76836   2.84282
 Alpha virt. eigenvalues --    2.87790   2.90902   2.94214   3.03308   3.05220
 Alpha virt. eigenvalues --    3.11492   3.30574   3.32746   3.34250   3.38357
 Alpha virt. eigenvalues --    3.42624   3.49597   3.49742   3.67663   3.73329
 Alpha virt. eigenvalues --    3.84341   3.87398   3.94462   4.14827   4.19556
 Alpha virt. eigenvalues --    4.24049   4.26006   4.33118   4.38453   4.39622
 Alpha virt. eigenvalues --    4.45223   4.46384   4.49860   4.55138   4.59683
 Alpha virt. eigenvalues --    4.62508   4.65825   4.66552   4.70882   4.72998
 Alpha virt. eigenvalues --    4.77232   4.78919   4.85875   4.96885   5.23666
 Alpha virt. eigenvalues --    5.31315   5.41886   5.47227   5.53847   5.80584
 Alpha virt. eigenvalues --    5.93803   6.01116   6.05856   6.67665   6.68520
 Alpha virt. eigenvalues --    6.80416   6.81296   7.02845   7.27115   7.32925
 Alpha virt. eigenvalues --    7.34604   9.55254  10.96606  11.86146  13.13969
          Condensed to atoms (all electrons):
               1          2          3          4          5          6
     1  C    4.850872   0.348595   0.362738   0.346056  -0.037992  -0.044907
     2  H    0.348595   0.679872  -0.059586  -0.025620  -0.006829   0.005395
     3  H    0.362738  -0.059586   0.675692  -0.032455   0.006536  -0.006624
     4  C    0.346056  -0.025620  -0.032455   4.674365   0.358145   0.357393
     5  H   -0.037992  -0.006829   0.006536   0.358145   0.658071  -0.053814
     6  H   -0.044907   0.005395  -0.006624   0.357393  -0.053814   0.661174
     7  F   -0.036758   0.001695  -0.000363   0.392424  -0.025120  -0.021407
     8  O    0.356366  -0.028723  -0.035472  -0.033169  -0.001089   0.001946
     9  H   -0.050197  -0.006219  -0.002268   0.006606  -0.000212  -0.000214
               7          8          9
     1  C   -0.036758   0.356366  -0.050197
     2  H    0.001695  -0.028723  -0.006219
     3  H   -0.000363  -0.035472  -0.002268
     4  C    0.392424  -0.033169   0.006606
     5  H   -0.025120  -0.001089  -0.000212
     6  H   -0.021407   0.001946  -0.000214
     7  F    8.826090   0.002578   0.000063
     8  O    0.002578   7.831216   0.306215
     9  H    0.000063   0.306215   0.455221
 Mulliken charges:
               1
     1  C   -0.094773
     2  H    0.091420
     3  H    0.091802
     4  C   -0.043746
     5  H    0.102303
     6  H    0.101058
     7  F   -0.139202
     8  O   -0.399868
     9  H    0.291005
 Sum of Mulliken charges =  -0.00000
 Mulliken charges with hydrogens summed into heavy atoms:
               1
     1  C    0.088450
     4  C    0.159615
     7  F   -0.139202
     8  O   -0.108863
 APT charges:
               1
     1  C    0.470141
     2  H   -0.077843
     3  H   -0.094779
     4  C    0.580342
     5  H   -0.064304
     6  H   -0.052588
     7  F   -0.449493
     8  O   -0.552367
     9  H    0.240891
 Sum of APT charges =   0.00000
 APT charges with hydrogens summed into heavy atoms:
               1
     1  C    0.297518
     4  C    0.463451
     7  F   -0.449493
     8  O   -0.311476
 Electronic spatial extent (au):  <R**2>=            284.1561
 Charge=              0.0000 electrons
 Dipole moment (field-independent basis, Debye):
    X=             -1.5805    Y=              2.3847    Z=             -0.0717  Tot=              2.8618
 Quadrupole moment (field-independent basis, Debye-Ang):
   XX=            -19.8606   YY=            -24.2428   ZZ=            -23.3126
   XY=              1.2826   XZ=              0.6601   YZ=              0.1377
 Traceless Quadrupole moment (field-independent basis, Debye-Ang):
   XX=              2.6114   YY=             -1.7708   ZZ=             -0.8406
   XY=              1.2826   XZ=              0.6601   YZ=              0.1377
 Octapole moment (field-independent basis, Debye-Ang**2):
  XXX=            -12.0026  YYY=             -6.8285  ZZZ=             -0.3259  XYY=              1.3524
  XXY=             -2.8743  XXZ=             -0.4342  XZZ=              2.0465  YZZ=             -1.8300
  YYZ=             -0.1230  XYZ=             -0.6171
 Hexadecapole moment (field-independent basis, Debye-Ang**3):
 XXXX=           -154.3383 YYYY=            -92.9832 ZZZZ=            -35.6749 XXXY=              7.6705
 XXXZ=             -1.0595 YYYX=             -2.4440 YYYZ=              0.4897 ZZZX=             -0.5401
 ZZZY=              0.5881 XXYY=            -45.8384 XXZZ=            -37.7290 YYZZ=            -21.3827
 XXYZ=              0.2217 YYXZ=             -1.2855 ZZXY=             -1.0572
 N-N= 1.312098075982D+02 E-N=-8.621854589282D+02  KE= 2.526659164706D+02
  Exact polarizability:      30.994       1.305      28.413       0.367      -0.291      26.068
 Approx polarizability:      38.002       0.322      40.044      -0.109      -0.339      35.356
 Calling FoFJK, ICntrl=    100127 FMM=F ISym2X=0 I1Cent= 0 IOpClX= 0 NMat=1 NMatS=1 NMatT=0.
 Full mass-weighted force constant matrix:
 Low frequencies ---  -69.5328  -23.5532   -8.4069   -0.0008   -0.0008   -0.0007
 Low frequencies ---   22.5708  234.1361  286.4186
 ******    1 imaginary frequencies (negative Signs) ****** 
 Diagonal vibrational polarizability:
        3.6159664       9.2280857      61.6885880
 Harmonic frequencies (cm**-1), IR intensities (KM/Mole), Raman scattering
 activities (A**4/AMU), depolarization ratios for plane and unpolarized
 incident light, reduced masses (AMU), force constants (mDyne/A),
 and normal coordinates:
                      1                      2                      3
                      A                      A                      A
 Frequencies --    -68.0095               234.1322               286.3004
 Red. masses --      2.1892                 1.0847                 6.4865
 Frc consts  --      0.0060                 0.0350                 0.3133
 IR Inten    --      1.5708               116.3897                 0.9678
  Atom  AN      X      Y      Z        X      Y      Z        X      Y      Z
     1   6     0.04  -0.05  -0.13     0.01  -0.01  -0.03    -0.06  -0.07   0.10
     2   1    -0.01   0.16  -0.43    -0.01  -0.02  -0.03     0.18  -0.07   0.27
     3   1     0.24  -0.34  -0.25     0.02   0.01  -0.03    -0.16   0.13   0.18
     4   6    -0.05  -0.05   0.14    -0.01  -0.00   0.02     0.03  -0.07  -0.11
     5   1    -0.27  -0.33   0.24    -0.05  -0.03   0.04     0.16   0.14  -0.18
     6   1     0.03   0.15   0.44     0.02   0.02   0.06    -0.21  -0.05  -0.29
     7   9     0.07   0.04  -0.11     0.01   0.01   0.01     0.38   0.03   0.04
     8   8    -0.07   0.05   0.13    -0.00  -0.01  -0.06    -0.40   0.04  -0.04
     9   1    -0.05   0.05  -0.08    -0.10   0.22   0.96    -0.37   0.32  -0.15
                      4                      5                      6
                      A                      A                      A
 Frequencies --    564.1015               866.9113               905.3055
 Red. masses --      3.2560                 1.4252                 2.8362
 Frc consts  --      0.6104                 0.6311                 1.3696
 IR Inten    --     21.2783                14.5402                11.0259
  Atom  AN      X      Y      Z        X      Y      Z        X      Y      Z
     1   6     0.18  -0.16   0.06    -0.10   0.05   0.06    -0.17   0.14  -0.08
     2   1    -0.01  -0.07  -0.20    -0.42   0.19  -0.34    -0.39  -0.01  -0.05
     3   1     0.45  -0.33  -0.03     0.36  -0.23  -0.10    -0.26   0.06  -0.07
     4   6     0.17   0.14   0.06    -0.02  -0.01   0.09     0.25   0.13   0.03
     5   1     0.48   0.29  -0.03     0.43   0.20  -0.04     0.04  -0.11   0.12
     6   1    -0.00   0.05  -0.21    -0.28  -0.14  -0.30     0.66   0.03   0.26
     7   9    -0.14   0.08  -0.02     0.04  -0.05  -0.03     0.02  -0.06  -0.01
     8   8    -0.15  -0.10  -0.02     0.03   0.04  -0.03    -0.08  -0.11   0.03
     9   1    -0.12   0.30  -0.07     0.01  -0.18   0.07    -0.09  -0.26   0.04
                      7                      8                      9
                      A                      A                      A
 Frequencies --   1100.8631              1115.3919              1169.3742
 Red. masses --      3.7001                 3.8973                 1.9990
 Frc consts  --      2.6420                 2.8567                 1.6105
 IR Inten    --     25.0946               121.7927                24.3166
  Atom  AN      X      Y      Z        X      Y      Z        X      Y      Z
     1   6    -0.04  -0.24   0.01     0.16   0.24   0.11    -0.06  -0.06   0.18
     2   1    -0.32  -0.46   0.12     0.02   0.44  -0.24    -0.14   0.28  -0.29
     3   1    -0.18  -0.05   0.07     0.26  -0.21  -0.01     0.09  -0.56   0.00
     4   6    -0.04   0.30   0.01    -0.19   0.17  -0.09     0.06  -0.05  -0.16
     5   1    -0.17   0.05   0.08    -0.31  -0.08  -0.03    -0.21  -0.44  -0.02
     6   1    -0.06   0.41   0.16    -0.09   0.27   0.13     0.25   0.18   0.27
     7   9     0.04  -0.19  -0.03     0.06  -0.13  -0.00    -0.02   0.05   0.04
     8   8     0.05   0.15  -0.01    -0.03  -0.21   0.01     0.02   0.06  -0.06
     9   1     0.08   0.41  -0.08     0.00   0.43  -0.11     0.01  -0.03   0.02
                     10                     11                     12
                      A                      A                      A
 Frequencies --   1219.0703              1282.1955              1309.4616
 Red. masses --      1.1151                 1.1293                 1.1204
 Frc consts  --      0.9764                 1.0939                 1.1319
 IR Inten    --     19.2885                 4.2723                15.4830
  Atom  AN      X      Y      Z        X      Y      Z        X      Y      Z
     1   6     0.00   0.02   0.01     0.03   0.01  -0.02    -0.03   0.03  -0.05
     2   1    -0.55  -0.30   0.00    -0.34  -0.31   0.08    -0.01   0.04  -0.03
     3   1     0.03   0.01  -0.01     0.55   0.41  -0.00    -0.38  -0.10  -0.03
     4   6    -0.02  -0.07  -0.01    -0.00  -0.01  -0.08     0.04  -0.04   0.01
     5   1    -0.11   0.06  -0.02     0.14  -0.35  -0.04     0.47  -0.35  -0.01
     6   1     0.27  -0.33  -0.06    -0.16   0.26   0.10    -0.42   0.34   0.05
     7   9     0.01   0.04  -0.01    -0.00   0.01   0.03    -0.01   0.01   0.03
     8   8     0.03  -0.02   0.02    -0.02   0.00   0.03     0.02  -0.03   0.00
     9   1     0.08   0.62  -0.13    -0.03  -0.22   0.05     0.06   0.43  -0.09
                     13                     14                     15
                      A                      A                      A
 Frequencies --   1433.4146              1471.4412              1511.0092
 Red. masses --      1.2652                 1.4488                 1.0859
 Frc consts  --      1.5316                 1.8482                 1.4607
 IR Inten    --     15.0534                 0.4153                 2.5226
  Atom  AN      X      Y      Z        X      Y      Z        X      Y      Z
     1   6    -0.05  -0.04  -0.01     0.17   0.03   0.01    -0.01   0.03  -0.01
     2   1     0.30   0.10   0.05    -0.41  -0.22  -0.10     0.02  -0.17   0.24
     3   1     0.16   0.07  -0.01    -0.58  -0.24   0.06     0.10  -0.27  -0.10
     4   6    -0.12   0.06  -0.01    -0.08   0.01   0.00    -0.03  -0.07  -0.02
     5   1     0.61  -0.30  -0.06     0.28  -0.14  -0.03     0.23   0.57  -0.19
     6   1     0.52  -0.28   0.12     0.13  -0.11   0.04     0.12   0.32   0.53
     7   9     0.01   0.01   0.01     0.01   0.00   0.00    -0.00  -0.01  -0.00
     8   8     0.01  -0.01   0.00    -0.04   0.04  -0.02     0.00   0.01  -0.00
     9   1     0.02   0.10  -0.02    -0.07  -0.44   0.08    -0.00  -0.01   0.00
                     16                     17                     18
                      A                      A                      A
 Frequencies --   1523.8502              2962.7262              2990.6038
 Red. masses --      1.0805                 1.0584                 1.1000
 Frc consts  --      1.4783                 5.4737                 5.7962
 IR Inten    --      1.8401                55.4267                33.7751
  Atom  AN      X      Y      Z        X      Y      Z        X      Y      Z
     1   6     0.02  -0.07   0.02    -0.03   0.04  -0.04     0.02  -0.04  -0.08
     2   1    -0.14   0.33  -0.52     0.19  -0.34  -0.31    -0.34   0.58   0.48
     3   1    -0.18   0.58   0.20     0.12  -0.20   0.83     0.08  -0.13   0.44
     4   6    -0.01  -0.03  -0.01    -0.00  -0.01   0.01     0.01   0.01   0.02
     5   1     0.09   0.27  -0.09    -0.00  -0.00  -0.01    -0.05  -0.05  -0.28
     6   1     0.08   0.13   0.25     0.04   0.06  -0.05    -0.01  -0.02   0.03
     7   9    -0.00  -0.00  -0.00     0.00  -0.00  -0.00    -0.00   0.00   0.00
     8   8     0.00  -0.01   0.01     0.00   0.00  -0.00    -0.00  -0.00   0.00
     9   1     0.01   0.04  -0.01     0.00   0.01  -0.00     0.00  -0.00   0.01
                     19                     20                     21
                      A                      A                      A
 Frequencies --   3019.9916              3064.3519              3835.5915
 Red. masses --      1.0588                 1.1085                 1.0665
 Frc consts  --      5.6893                 6.1329                 9.2440
 IR Inten    --     61.7615                59.5141                24.6676
  Atom  AN      X      Y      Z        X      Y      Z        X      Y      Z
     1   6     0.01  -0.01  -0.02     0.00  -0.00  -0.02    -0.00   0.00  -0.00
     2   1    -0.10   0.16   0.14    -0.04   0.07   0.05     0.00   0.00  -0.00
     3   1     0.01  -0.02   0.07     0.02  -0.04   0.14     0.00   0.00  -0.00
     4   6    -0.04  -0.04  -0.03     0.02   0.03  -0.09     0.00   0.00   0.00
     5   1     0.12   0.14   0.72     0.12   0.12   0.58     0.00  -0.00  -0.00
     6   1     0.30   0.41  -0.37    -0.39  -0.51   0.44    -0.00   0.00  -0.00
     7   9     0.00  -0.00  -0.00    -0.00  -0.00   0.00     0.00  -0.00  -0.00
     8   8     0.00  -0.00   0.00    -0.00  -0.00   0.00    -0.06   0.00  -0.01
     9   1     0.00  -0.00   0.00     0.00  -0.00   0.00     0.99  -0.05   0.10

 -------------------
 - Thermochemistry -
 -------------------
 Temperature   298.150 Kelvin.  Pressure   1.00000 Atm.
 Atom     1 has atomic number  6 and mass  12.00000
 Atom     2 has atomic number  1 and mass   1.00783
 Atom     3 has atomic number  1 and mass   1.00783
 Atom     4 has atomic number  6 and mass  12.00000
 Atom     5 has atomic number  1 and mass   1.00783
 Atom     6 has atomic number  1 and mass   1.00783
 Atom     7 has atomic number  9 and mass  18.99840
 Atom     8 has atomic number  8 and mass  15.99491
 Atom     9 has atomic number  1 and mass   1.00783
 Molecular mass:    64.03244 amu.
 Principal axes and moments of inertia in atomic units:
                           1         2         3
     Eigenvalues --   119.92998 302.72743 392.71312
           X            0.99914   0.03877   0.01495
           Y           -0.03872   0.99924  -0.00351
           Z           -0.01507   0.00293   0.99988
 This molecule is an asymmetric top.
 Rotational symmetry number  1.
 Rotational temperatures (Kelvin)      0.72220     0.28611     0.22055
 Rotational constants (GHZ):          15.04829     5.96160     4.59557
    1 imaginary frequencies ignored.
 Zero-point vibrational energy     190601.5 (Joules/Mol)
                                   45.55486 (Kcal/Mol)
 Warning -- explicit consideration of   3 degrees of freedom as
           vibrations may cause significant error
 Vibrational temperatures:    336.86   411.92   811.62  1247.29  1302.53
          (Kelvin)           1583.90  1604.80  1682.47  1753.97  1844.79
                             1884.02  2062.36  2117.08  2174.01  2192.48
                             4262.70  4302.81  4345.09  4408.92  5518.56
 
 Zero-point correction=                           0.072596 (Hartree/Particle)
 Thermal correction to Energy=                    0.076797
 Thermal correction to Enthalpy=                  0.077741
 Thermal correction to Gibbs Free Energy=         0.045895
 Sum of electronic and zero-point Energies=           -254.202123
 Sum of electronic and thermal Energies=              -254.197922
 Sum of electronic and thermal Enthalpies=            -254.196978
 Sum of electronic and thermal Free Energies=         -254.228824
 
                     E (Thermal)             CV                S
                      KCal/Mol        Cal/Mol-Kelvin    Cal/Mol-Kelvin
 Total                   48.191             13.182             67.026
 Electronic               0.000              0.000              0.000
 Translational            0.889              2.981             38.389
 Rotational               0.889              2.981             24.170
 Vibrational             46.414              7.221              4.467
 Vibration     1          0.654              1.789              1.847
 Vibration     2          0.684              1.699              1.496
 Vibration     3          0.920              1.109              0.516
                       Q            Log10(Q)             Ln(Q)
 Total Bot       0.775790D-21        -21.110256        -48.608160
 Total V=0       0.191289D+13         12.281690         28.279636
 Vib (Bot)       0.901192D-33        -33.045183        -76.089345
 Vib (Bot)    1  0.839694D+00         -0.075879         -0.174718
 Vib (Bot)    2  0.669286D+00         -0.174388         -0.401544
 Vib (Bot)    3  0.274420D+00         -0.561584         -1.293096
 Vib (V=0)       0.222210D+01          0.346763          0.798451
 Vib (V=0)    1  0.147728D+01          0.169464          0.390206
 Vib (V=0)    2  0.133543D+01          0.125621          0.289254
 Vib (V=0)    3  0.107036D+01          0.029528          0.067992
 Electronic      0.100000D+01          0.000000          0.000000
 Translational   0.201397D+08          7.304054         16.818206
 Rotational      0.427438D+05          4.630873         10.662979
 ***** Axes restored to original set *****
 -------------------------------------------------------------------
 Center     Atomic                   Forces (Hartrees/Bohr)
 Number     Number              X              Y              Z
 -------------------------------------------------------------------
      1        6           0.001556563   -0.001464956   -0.008939850
      2        1          -0.000008422   -0.000004241   -0.000022303
      3        1          -0.000038221    0.000024118   -0.000019760
      4        6          -0.001701903   -0.001700003    0.009167900
      5        1           0.000033779    0.000039386    0.000019019
      6        1           0.000015855    0.000001190    0.000028022
      7        9           0.001109066    0.001608536   -0.005744277
      8        8          -0.000972997    0.001468534    0.005515330
      9        1           0.000006280    0.000027436   -0.000004082
 -------------------------------------------------------------------
 Cartesian Forces:  Max     0.009167900 RMS     0.003010297

 GradGradGradGradGradGradGradGradGradGradGradGradGradGradGradGradGradGrad
 Berny optimization.
 Search for a local minimum.
 Step number   1 out of a maximum of    2
 All quantities printed in internal units (Hartrees-Bohrs-Radians)
 Second derivative matrix not updated -- analytic derivatives used.
 ITU=  0
     Eigenvalues ---   -0.00044   0.00311   0.02404   0.03228   0.05462
     Eigenvalues ---    0.07128   0.07829   0.08341   0.10921   0.12005
     Eigenvalues ---    0.15707   0.16116   0.20332   0.29530   0.47877
     Eigenvalues ---    0.66738   0.70811   0.75998   0.78878   0.85665
     Eigenvalues ---    1.06335
 Eigenvalue     1 is  -4.43D-04 should be greater than     0.000000 Eigenvector:
                          Z6        Z2        Y5        Y3        Z7
   1                    0.39922  -0.37858  -0.37355  -0.36390  -0.27142
                          Z8        Y6        Z3        X5        Y2
   1                    0.26126   0.21918  -0.20114  -0.20017   0.19264
 Quadratic step=1.173D+01 exceeds max=3.000D-01 adjusted using Lamda=-1.734D-02.
 Angle between NR and scaled steps=  12.72 degrees.
 Angle between quadratic step and forces=  63.02 degrees.
 Linear search not attempted -- first point.
 B after Tr=     0.002205    0.007692   -0.005993
         Rot=    0.999981   -0.001474   -0.006019   -0.000621 Ang=  -0.71 deg.
 Variable       Old X    -DE/DX   Delta X   Delta X   Delta X     New X
                                 (Linear)    (Quad)   (Total)
    X1       -1.35161   0.00156   0.00000   0.01280   0.01004  -1.34157
    Y1        1.20551  -0.00146   0.00000  -0.01769  -0.01081   1.19470
    Z1       -0.25981  -0.00894   0.00000  -0.04006  -0.02641  -0.28621
    X2       -2.17948  -0.00001   0.00000   0.01432   0.02330  -2.15618
    Y2        2.69336  -0.00000   0.00000   0.04512   0.04763   2.74099
    Z2        0.93740  -0.00002   0.00000  -0.10974  -0.08164   0.85576
    X3       -1.66867  -0.00004   0.00000   0.04665   0.01916  -1.64951
    Y3        1.76074   0.00002   0.00000  -0.09733  -0.08491   1.67583
    Z3       -2.24225  -0.00002   0.00000  -0.06486  -0.04624  -2.28849
    X4        1.49805  -0.00170   0.00000  -0.01414  -0.00957   1.48848
    Y4        1.09408  -0.00170   0.00000  -0.01499  -0.00636   1.08772
    Z4        0.27154   0.00917   0.00000   0.04380   0.02311   0.29466
    X5        1.86938   0.00003   0.00000  -0.05164  -0.02321   1.84616
    Y5        1.51689   0.00004   0.00000  -0.09491  -0.09179   1.42510
    Z5        2.26826   0.00002   0.00000   0.06484   0.04099   2.30925
    X6        2.49900   0.00002   0.00000  -0.01291  -0.02334   2.47566
    Y6        2.48899   0.00000   0.00000   0.04759   0.06068   2.54967
    Z6       -0.89027   0.00003   0.00000   0.11390   0.08555  -0.80472
    X7        2.43499   0.00111   0.00000   0.03122   0.03125   2.46624
    Y7       -1.27715   0.00161   0.00000   0.02975   0.04142  -1.23573
    Z7       -0.19776  -0.00574   0.00000  -0.09512  -0.13446  -0.33222
    X8       -2.39018  -0.00097   0.00000  -0.02626  -0.01871  -2.40889
    Y8       -1.20960   0.00147   0.00000   0.02865   0.03239  -1.17720
    Z8        0.20337   0.00552   0.00000   0.10609   0.12567   0.32904
    X9       -4.19235   0.00001   0.00000  -0.01251  -0.00891  -4.20125
    Y9       -1.08636   0.00003   0.00000   0.00928   0.01174  -1.07462
    Z9        0.00928  -0.00000   0.00000  -0.02800   0.01343   0.02271
         Item               Value     Threshold  Converged?
 Maximum Force            0.009168     0.000450     NO 
 RMS     Force            0.003010     0.000300     NO 
 Maximum Displacement     0.134462     0.001800     NO 
 RMS     Displacement     0.054881     0.001200     NO 
 Predicted change in Energy=-1.887821D-03
 GradGradGradGradGradGradGradGradGradGradGradGradGradGradGradGradGradGrad


 ----------------------------------------------------------------------

 Electric dipole moment (input orientation):
 (Debye = 10**-18 statcoulomb cm , SI units = C m)
                  (au)            (Debye)         (10**-30 SI)
   Tot        0.112590D+01      0.286176D+01      0.954579D+01
   x         -0.621809D+00     -0.158048D+01     -0.527191D+01
   y          0.938196D+00      0.238466D+01      0.795435D+01
   z         -0.282190D-01     -0.717255D-01     -0.239251D+00

 Dipole polarizability, Alpha (input orientation).
 (esu units = cm**3 , SI units = C**2 m**2 J**-1)
 Alpha(0;0):
               (au)            (10**-24 esu)      (10**-40 SI)
   iso        0.284916D+02      0.422202D+01      0.469763D+01
   aniso      0.489708D+01      0.725672D+00      0.807419D+00
   xx         0.309938D+02      0.459281D+01      0.511019D+01
   yx         0.130522D+01      0.193414D+00      0.215202D+00
   yy         0.284130D+02      0.421037D+01      0.468467D+01
   zx         0.367005D+00      0.543845D-01      0.605110D-01
   zy        -0.291218D+00     -0.431540D-01     -0.480153D-01
   zz         0.260680D+02      0.386287D+01      0.429803D+01

 ----------------------------------------------------------------------

 Dipole orientation:
     6         -0.50320085         -0.07458437          1.75750556
     1          0.29143301         -1.03479373          3.42451299
     1         -1.55383647          1.58748051          2.44495795
     6          1.69579442          0.79571873          0.07753812
     1          3.25326986         -0.57115241          0.17473839
     1          2.40040309          2.63776312          0.71620996
     9          0.96112484          0.94664069         -2.40406453
     8         -2.10106580         -1.64582057          0.30700650
     1         -3.38844132         -2.29930526          1.40985486

 Electric dipole moment (dipole orientation):
 (Debye = 10**-18 statcoulomb cm , SI units = C m)
                  (au)            (Debye)         (10**-30 SI)
   Tot        0.112590D+01      0.286176D+01      0.954579D+01
   x          0.000000D+00      0.000000D+00      0.000000D+00
   y          0.000000D+00      0.000000D+00      0.000000D+00
   z          0.112590D+01      0.286176D+01      0.954579D+01

 Dipole polarizability, Alpha (dipole orientation).
 (esu units = cm**3 , SI units = C**2 m**2 J**-1)
 Alpha(0;0):
               (au)            (10**-24 esu)      (10**-40 SI)
   iso        0.284916D+02      0.422202D+01      0.469763D+01
   aniso      0.489708D+01      0.725672D+00      0.807419D+00
   xx         0.298898D+02      0.442921D+01      0.492816D+01
   yx         0.241904D+01      0.358465D+00      0.398846D+00
   yy         0.275653D+02      0.408476D+01      0.454491D+01
   zx        -0.788687D+00     -0.116871D+00     -0.130037D+00
   zy        -0.469649D-01     -0.695949D-02     -0.774347D-02
   zz         0.280197D+02      0.415209D+01      0.461982D+01

 ----------------------------------------------------------------------
 Unable to Open any file for archive entry.
 1\1\GINC-COMPUTE-2-3\Freq\RB3LYP\6-31G(2df,p)\C2H5F1O1\JINGDAN2\05-Dec
 -2024\0\\# freq b3lyp/6-31g(2df,p)\\energy: -15.614184499692 gnorm: 0.
 000439253721 xtb: 6.6.1 (8d0f1dd)\\0,1\C,-0.715241,0.637928,-0.137483\
 H,-1.15333,1.425264,0.49605\H,-0.88302,0.931742,-1.186547\C,0.792733,0
 .578963,0.143695\H,0.989231,0.802704,1.20031\H,1.322416,1.317118,-0.47
 1111\F,1.288542,-0.675841,-0.10465\O,-1.26483,-0.640091,0.10762\H,-2.2
 18494,-0.574877,0.004912\\Version=ES64L-G16RevC.01\State=1-A\HF=-254.2
 747194\RMSD=4.464e-09\RMSF=3.010e-03\ZeroPoint=0.0725963\Thermal=0.076
 7972\ETot=-254.1979222\HTot=-254.196978\GTot=-254.2288243\Dipole=-0.62
 18087,0.9381956,-0.028219\DipoleDeriv=0.3305303,0.2324605,-0.050711,0.
 1768363,0.6631651,-0.0540161,-0.0585807,-0.054566,0.4167269,-0.0380315
 ,0.0489481,0.037558,0.0155038,-0.1439835,-0.0767678,0.0632197,-0.10810
 86,-0.0515149,-0.0381247,-0.0121615,-0.0354718,-0.0378148,-0.0418566,0
 .0575691,-0.0396618,0.0947988,-0.2043569,0.5138322,-0.2042309,-0.03563
 82,-0.1419809,0.787081,0.0690289,-0.0355727,0.0720871,0.4401143,-0.023
 3248,0.0143601,-0.0404064,0.022059,-0.00428,-0.0199554,-0.0603408,-0.0
 61147,-0.1653081,-0.0474525,-0.0555212,0.0431411,-0.0418097,-0.0806407
 ,0.0526843,0.0707497,0.0930448,-0.0296694,-0.4069037,0.2133315,0.03739
 5,0.2452536,-0.6974054,-0.1014653,0.0340307,-0.1006111,-0.2441699,-0.4
 317972,-0.2760034,0.072494,-0.2895257,-0.738903,0.0504014,0.0685425,0.
 0440233,-0.4864004,0.1412719,0.0388168,-0.0283608,0.0514783,0.2568231,
 0.0225209,-0.0423866,0.0204787,0.3245784\Polar=30.9938258,1.3052237,28
 .4130166,0.3670051,-0.2912177,26.067956\Quadrupole=1.9414899,-1.316524
 8,-0.6249651,0.9535727,0.4907737,0.102367\PG=C01 [X(C2H5F1O1)]\NImag=1
 \\0.49419969,-0.02797169,0.51721406,0.00164428,0.01704408,0.57058593,-
 0.09688815,0.06931529,0.06025193,0.09877599,0.06562713,-0.15491317,-0.
 09404783,-0.07299391,0.18446952,0.06380954,-0.09795669,-0.14060728,-0.
 06412479,0.10671977,0.14420291,-0.05897501,0.01212776,-0.03555128,0.00
 395350,-0.00095533,0.01442476,0.06283372,0.01180565,-0.06004708,0.0441
 4632,-0.00234257,0.00709236,-0.02042889,-0.00385348,0.07641953,-0.0372
 4849,0.04616581,-0.26861430,-0.00418027,0.00248581,-0.01969452,0.03894
 993,-0.06199324,0.29066535,-0.17329796,-0.00978890,-0.03173270,-0.0080
 0709,0.00331340,-0.00481996,-0.00798705,-0.00092642,-0.00052658,0.4832
 4753,0.01135191,-0.06731409,0.00255690,0.02211580,-0.00076479,0.004787
 26,0.00339128,0.00018388,-0.00110957,0.03861781,0.53329581,-0.03235279
 ,0.00159539,-0.09182360,0.01912606,-0.00349253,0.00245610,-0.03450265,
 0.00264338,-0.00639930,-0.00915559,-0.02243407,0.59924331,-0.00841383,
 -0.00182015,-0.03387314,0.00139298,-0.00023250,0.00015857,-0.00604017,
 -0.00010247,-0.00137456,-0.06124861,-0.01184574,-0.04484768,0.06471652
 ,0.00150731,0.00095158,-0.00049097,0.00070453,0.00082128,0.00057785,0.
 00043179,0.00081134,0.00008392,-0.01177323,-0.05475344,-0.03005299,0.0
 0206154,0.07199006,-0.00046942,0.00166399,-0.00599124,-0.00065670,0.00
 054328,0.00141426,-0.00143700,0.00004489,0.00155238,-0.04387710,-0.037
 54295,-0.28623802,0.04691911,0.05139632,0.30721384,-0.01042868,-0.0213
 4716,0.01832352,-0.00075196,0.00132521,-0.00010425,0.00136053,-0.00049
 907,-0.00072199,-0.11771112,-0.08209146,0.07493738,0.00451038,0.002889
 30,-0.00465653,0.12099761,-0.00258065,0.00383478,0.00259468,-0.0018081
 4,-0.00065594,-0.00039922,0.00031096,0.00073883,-0.00047051,-0.0767563
 2,-0.14857545,0.08842846,0.00092267,0.00696533,-0.00170609,0.08506721,
 0.17811963,-0.00651702,-0.00437835,0.00339944,-0.00028752,0.00033763,0
 .00021127,0.00020579,-0.00062892,0.00128587,0.07661603,0.09602226,-0.1
 4255838,0.01637751,0.01933755,-0.01719960,-0.07804313,-0.10263607,0.14
 290465,-0.01974168,0.04202598,0.01198421,-0.00783919,-0.00033402,-0.00
 260087,0.00042008,-0.00036143,-0.00051016,-0.08821986,0.06283311,0.014
 63782,0.00412654,0.00363575,0.00432568,0.00981994,-0.00662224,-0.00611
 528,0.09985195,0.01243330,-0.02183533,-0.00472299,0.00243411,0.0009354
 7,0.00185442,0.00088804,0.00057781,0.00118296,0.06714642,-0.24554094,-
 0.03915655,0.01114500,-0.02753006,-0.01349896,0.01534007,-0.04105408,-
 0.00685796,-0.10458396,0.32874410,0.00306563,0.00288145,0.00568727,-0.
 00086002,0.00025220,0.00081404,0.00172316,-0.00039837,0.00065527,0.011
 78955,-0.03699607,-0.07885326,0.01519103,-0.04112612,-0.00136023,-0.00
 873697,0.01417761,0.01120376,-0.02251189,0.06090406,0.06106962,-0.1100
 8422,-0.06963203,0.01221153,0.00732516,0.00270934,-0.00595102,0.003547
 60,-0.00529838,0.00566702,-0.02588220,-0.04201298,0.01027342,0.0007673
 3,0.00058242,-0.00017040,-0.00712413,0.00129078,-0.00185633,0.00062837
 ,-0.00317105,0.00043272,0.63909021,-0.02437650,-0.21118712,0.03687803,
 -0.01754251,-0.03811617,0.00574591,-0.01263631,-0.02629847,0.01288757,
 -0.00821523,-0.00830551,0.00027551,-0.00012296,0.00067499,-0.00088865,
 0.00100062,0.00023541,-0.00079574,0.00128177,0.00470248,0.00031574,0.0
 4540047,0.31951326,-0.00015767,0.03227201,-0.07160135,-0.00841990,-0.0
 1374958,0.01050782,0.01531126,0.03665672,0.00017032,0.00127739,-0.0057
 1447,0.00409195,0.00135997,0.00014811,0.00077143,-0.00109306,-0.000026
 66,0.00048915,0.00065773,0.00027373,0.00067629,0.04126231,-0.06540683,
 0.06496988,-0.01637016,0.00709090,-0.00325834,0.00203877,0.00154067,-0
 .00079198,0.00088681,0.00157818,-0.00005489,-0.00089363,-0.00235974,0.
 00188401,0.00018886,-0.00003941,0.00002234,-0.00067256,0.00017574,-0.0
 0038004,0.00095385,-0.00163192,-0.00009321,-0.50826812,0.01521065,-0.0
 5019803,0.52213619,-0.04779645,-0.00670364,-0.00395821,0.00011740,0.00
 113144,-0.00090042,0.00029529,0.00052178,0.00076724,-0.00161754,-0.008
 22548,0.00219341,-0.00000541,0.00006892,-0.00001183,-0.00168472,0.0003
 9149,-0.00040041,0.00212505,0.00100054,-0.00001051,0.07013143,-0.04121
 887,0.01554697,-0.02156506,0.05303381,0.00822594,0.00071231,-0.0010348
 7,-0.00084880,0.00095125,0.00069540,0.00087604,-0.00004190,0.00037894,
 0.00042896,0.00043072,0.00008120,0.00008918,0.00012633,-0.00016282,0.0
 0009503,0.00003779,0.00026384,0.00013276,0.00002129,0.00010724,-0.0618
 6925,0.01098846,-0.01007547,0.05287014,-0.01322626,0.00974654\\-0.0015
 5656,0.00146496,0.00893985,0.00000842,0.00000424,0.00002230,0.00003822
 ,-0.00002412,0.00001976,0.00170190,0.00170000,-0.00916790,-0.00003378,
 -0.00003939,-0.00001902,-0.00001586,-0.00000119,-0.00002802,-0.0011090
 7,-0.00160854,0.00574428,0.00097300,-0.00146853,-0.00551533,-0.0000062
 8,-0.00002744,0.00000408\\\@
 The archive entry for this job was punched.


 SIGN SEEN IN A RESTAURANT-
 WE RESERVE THE RIGHT TO SERVE REFUSE TO ANYONE.
 Job cpu time:       0 days  0 hours  6 minutes 45.1 seconds.
 Elapsed time:       0 days  0 hours  0 minutes 51.9 seconds.
 File lengths (MBytes):  RWF=     21 Int=      0 D2E=      0 Chk=      2 Scr=      1
 Normal termination of Gaussian 16 at Thu Dec  5 18:22:44 2024.
