 Entering Gaussian System, Link 0=g16
 Input=rotation_std2.gjf
 Output=rotation_std2.log
 Initial command:
 /share/apps/gaussian/g16/l1.exe "/scratch/jingdan2/247458/Gau-189312.inp" -scrdir="/scratch/jingdan2/247458/"
 Entering Link 1 = /share/apps/gaussian/g16/l1.exe PID=    189315.
  
 Copyright (c) 1988-2019, Gaussian, Inc.  All Rights Reserved.
  
 This is part of the Gaussian(R) 16 program.  It is based on
 the Gaussian(R) 09 system (copyright 2009, Gaussian, Inc.),
 the Gaussian(R) 03 system (copyright 2003, Gaussian, Inc.),
 the Gaussian(R) 98 system (copyright 1998, Gaussian, Inc.),
 the Gaussian(R) 94 system (copyright 1995, Gaussian, Inc.),
 the Gaussian 92(TM) system (copyright 1992, Gaussian, Inc.),
 the Gaussian 90(TM) system (copyright 1990, Gaussian, Inc.),
 the Gaussian 88(TM) system (copyright 1988, Gaussian, Inc.),
 the Gaussian 86(TM) system (copyright 1986, Carnegie Mellon
 University), and the Gaussian 82(TM) system (copyright 1983,
 Carnegie Mellon University). Gaussian is a federally registered
 trademark of Gaussian, Inc.
  
 This software contains proprietary and confidential information,
 including trade secrets, belonging to Gaussian, Inc.
  
 This software is provided under written license and may be
 used, copied, transmitted, or stored only in accord with that
 written license.
  
 The following legend is applicable only to US Government
 contracts under FAR:
  
                    RESTRICTED RIGHTS LEGEND
  
 Use, reproduction and disclosure by the US Government is
 subject to restrictions as set forth in subparagraphs (a)
 and (c) of the Commercial Computer Software - Restricted
 Rights clause in FAR 52.227-19.
  
 Gaussian, Inc.
 340 Quinnipiac St., Bldg. 40, Wallingford CT 06492
  
  
 ---------------------------------------------------------------
 Warning -- This program may not be used in any manner that
 competes with the business of Gaussian, Inc. or will provide
 assistance to any competitor of Gaussian, Inc.  The licensee
 of this program is prohibited from giving any competitor of
 Gaussian, Inc. access to this program.  By using this program,
 the user acknowledges that Gaussian, Inc. is engaged in the
 business of creating and licensing software in the field of
 computational chemistry and represents and warrants to the
 licensee that it is not a competitor of Gaussian, Inc. and that
 it will not use this program in any manner prohibited above.
 ---------------------------------------------------------------
  

 Cite this work as:
 Gaussian 16, Revision C.01,
 M. J. Frisch, G. W. Trucks, H. B. Schlegel, G. E. Scuseria, 
 M. A. Robb, J. R. Cheeseman, G. Scalmani, V. Barone, 
 G. A. Petersson, H. Nakatsuji, X. Li, M. Caricato, A. V. Marenich, 
 J. Bloino, B. G. Janesko, R. Gomperts, B. Mennucci, H. P. Hratchian, 
 J. V. Ortiz, A. F. Izmaylov, J. L. Sonnenberg, D. Williams-Young, 
 F. Ding, F. Lipparini, F. Egidi, J. Goings, B. Peng, A. Petrone, 
 T. Henderson, D. Ranasinghe, V. G. Zakrzewski, J. Gao, N. Rega, 
 G. Zheng, W. Liang, M. Hada, M. Ehara, K. Toyota, R. Fukuda, 
 J. Hasegawa, M. Ishida, T. Nakajima, Y. Honda, O. Kitao, H. Nakai, 
 T. Vreven, K. Throssell, J. A. Montgomery, Jr., J. E. Peralta, 
 F. Ogliaro, M. J. Bearpark, J. J. Heyd, E. N. Brothers, K. N. Kudin, 
 V. N. Staroverov, T. A. Keith, R. Kobayashi, J. Normand, 
 K. Raghavachari, A. P. Rendell, J. C. Burant, S. S. Iyengar, 
 J. Tomasi, M. Cossi, J. M. Millam, M. Klene, C. Adamo, R. Cammi, 
 J. W. Ochterski, R. L. Martin, K. Morokuma, O. Farkas, 
 J. B. Foresman, and D. J. Fox, Gaussian, Inc., Wallingford CT, 2019.
 
 ******************************************
 Gaussian 16:  ES64L-G16RevC.01  3-Jul-2019
                 5-Dec-2024 
 ******************************************
 %nprocshared=8
 Will use up to    8 processors via shared memory.
 %mem=8GB
 -------------------------
 # freq b3lyp/6-31g(2df,p)
 -------------------------
 1/10=4,30=1,38=1/1,3;
 2/12=2,17=6,18=5,40=1/2;
 3/5=1,6=6,7=104,11=2,25=1,30=1,71=2,74=-5,140=1/1,2,3;
 4//1;
 5/5=2,38=5,98=1/2;
 8/6=4,10=90,11=11/1;
 11/6=1,8=1,9=11,15=111,16=1/1,2,10;
 10/6=1/2;
 6/7=2,8=2,9=2,10=2,28=1/1;
 7/8=1,10=1,25=1/1,2,3,16;
 1/10=4,30=1/3;
 99//99;
 -------------------------------------------------------------------
 energy: -15.614184499692 gnorm: 0.000439253721 xtb: 6.6.1 (8d0f1dd)
 -------------------------------------------------------------------
 Symbolic Z-matrix:
 Charge =  0 Multiplicity = 1
 C                    -0.5549    0.499    -0.05026 
 H                    -0.4139    1.17973   0.80346 
 H                    -0.5306    1.10426  -0.9687 
 C                     0.59562  -0.49696  -0.05865 
 H                     0.60554  -1.08254  -0.98514 
 H                     0.48947  -1.18398   0.78943 
 F                     1.78641   0.18712   0.05779 
 O                    -1.74728  -0.25713   0.06274 
 H                    -2.49426   0.34322  -0.00756 
 

 GradGradGradGradGradGradGradGradGradGradGradGradGradGradGradGradGradGrad
 Berny optimization.
 Initialization pass.
 Trust Radius=3.00D-01 FncErr=1.00D-07 GrdErr=1.00D-07 EigMax=2.50D+02 EigMin=1.00D-04
 Number of steps in this run=      2 maximum allowed number of steps=      2.
 GradGradGradGradGradGradGradGradGradGradGradGradGradGradGradGradGradGrad

                          Input orientation:                          
 ---------------------------------------------------------------------
 Center     Atomic      Atomic             Coordinates (Angstroms)
 Number     Number       Type             X           Y           Z
 ---------------------------------------------------------------------
      1          6           0       -0.554896    0.499000   -0.050264
      2          1           0       -0.413899    1.179728    0.803457
      3          1           0       -0.530600    1.104260   -0.968696
      4          6           0        0.595615   -0.496958   -0.058647
      5          1           0        0.605542   -1.082536   -0.985139
      6          1           0        0.489471   -1.183976    0.789426
      7          9           0        1.786411    0.187120    0.057786
      8          8           0       -1.747283   -0.257129    0.062738
      9          1           0       -2.494261    0.343221   -0.007559
 ---------------------------------------------------------------------
                    Distance matrix (angstroms):
                    1          2          3          4          5
     1  C    0.000000
     2  H    1.100959   0.000000
     3  H    1.100203   1.777594   0.000000
     4  C    1.521735   2.138602   2.158807   0.000000
     5  H    2.172985   3.058786   2.464379   1.096078   0.000000
     6  H    2.151323   2.530488   3.060647   1.096580   1.781248
     7  F    2.364458   2.526393   2.695060   1.378229   2.023406
     8  O    1.416435   2.095504   2.097034   2.358267   2.704649
     9  H    1.946080   2.384407   2.314936   3.202475   3.549257
                    6          7          8          9
     6  H    0.000000
     7  F    2.024168   0.000000
     8  O    2.527882   3.561513   0.000000
     9  H    3.445312   4.284016   0.960905   0.000000
 Stoichiometry    C2H5FO
 Framework group  C1[X(C2H5FO)]
 Deg. of freedom    21
 Full point group                 C1      NOp   1
 Largest Abelian subgroup         C1      NOp   1
 Largest concise Abelian subgroup C1      NOp   1
                         Standard orientation:                         
 ---------------------------------------------------------------------
 Center     Atomic      Atomic             Coordinates (Angstroms)
 Number     Number       Type             X           Y           Z
 ---------------------------------------------------------------------
      1          6           0        0.554896    0.499000    0.050264
      2          1           0        0.413899    1.179728   -0.803457
      3          1           0        0.530600    1.104260    0.968696
      4          6           0       -0.595615   -0.496958    0.058647
      5          1           0       -0.605542   -1.082536    0.985139
      6          1           0       -0.489471   -1.183976   -0.789426
      7          9           0       -1.786411    0.187120   -0.057786
      8          8           0        1.747283   -0.257129   -0.062738
      9          1           0        2.494261    0.343222    0.007559
 ---------------------------------------------------------------------
 Rotational constants (GHZ):          30.9916321           3.9485074           3.6753756
 Standard basis: 6-31G(2df,p) (6D, 7F)
 There are   149 symmetry adapted cartesian basis functions of A   symmetry.
 There are   137 symmetry adapted basis functions of A   symmetry.
   137 basis functions,   211 primitive gaussians,   149 cartesian basis functions
    17 alpha electrons       17 beta electrons
       nuclear repulsion energy       128.0896024467 Hartrees.
 NAtoms=    9 NActive=    9 NUniq=    9 SFac= 1.00D+00 NAtFMM=   60 NAOKFM=F Big=F
 Integral buffers will be    131072 words long.
 Raffenetti 2 integral format.
 Two-electron integral symmetry is turned on.
 One-electron integrals computed using PRISM.
 NBasis=   137 RedAO= T EigKep=  1.25D-03  NBF=   137
 NBsUse=   137 1.00D-06 EigRej= -1.00D+00 NBFU=   137
 ExpMin= 1.61D-01 ExpMax= 7.00D+03 ExpMxC= 1.05D+03 IAcc=3 IRadAn=         5 AccDes= 0.00D+00
 Harris functional with IExCor=  402 and IRadAn=       5 diagonalized for initial guess.
 HarFok:  IExCor=  402 AccDes= 0.00D+00 IRadAn=         5 IDoV= 1 UseB2=F ITyADJ=14
 ICtDFT=  3500011 ScaDFX=  1.000000  1.000000  1.000000  1.000000
 FoFCou: FMM=F IPFlag=           0 FMFlag=      100000 FMFlg1=           0
         NFxFlg=           0 DoJE=T BraDBF=F KetDBF=T FulRan=T
         wScrn=  0.000000 ICntrl=       500 IOpCl=  0 I1Cent=   200000004 NGrid=           0
         NMat0=    1 NMatS0=      1 NMatT0=    0 NMatD0=    1 NMtDS0=    0 NMtDT0=    0
 Petite list used in FoFCou.
 Keep R1 ints in memory in canonical form, NReq=52495207.
 Requested convergence on RMS density matrix=1.00D-08 within 128 cycles.
 Requested convergence on MAX density matrix=1.00D-06.
 Requested convergence on             energy=1.00D-06.
 No special actions if energy rises.
 Integral accuracy reduced to 1.0D-05 until final iterations.
 Initial convergence to 1.0D-05 achieved.  Increase integral accuracy.
 SCF Done:  E(RB3LYP) =  -254.280644804     A.U. after   12 cycles
            NFock= 12  Conv=0.25D-08     -V/T= 2.0064
 DoSCS=F DFT=T ScalE2(SS,OS)=  1.000000  1.000000
 Range of M.O.s used for correlation:     1   137
 NBasis=   137 NAE=    17 NBE=    17 NFC=     0 NFV=     0
 NROrb=    137 NOA=    17 NOB=    17 NVA=   120 NVB=   120

 **** Warning!!: The largest alpha MO coefficient is  0.18600537D+02

 Symmetrizing basis deriv contribution to polar:
 IMax=3 JMax=2 DiffMx= 0.00D+00
 G2DrvN: will do    10 centers at a time, making    1 passes.
 Calling FoFCou, ICntrl=  3107 FMM=F I1Cent=   0 AccDes= 0.00D+00.
 End of G2Drv F.D. properties file   721 does not exist.
 End of G2Drv F.D. properties file   722 does not exist.
 End of G2Drv F.D. properties file   788 does not exist.
          IDoAtm=111111111
          Differentiating once with respect to electric field.
                with respect to dipole field.
          Differentiating once with respect to nuclear coordinates.
 Keep R1 ints in memory in canonical form, NReq=52475930.
          There are    30 degrees of freedom in the 1st order CPHF.  IDoFFX=6 NUNeed=     3.
     27 vectors produced by pass  0 Test12= 6.80D-15 3.33D-09 XBig12= 1.51D+01 1.56D+00.
 AX will form    27 AO Fock derivatives at one time.
     27 vectors produced by pass  1 Test12= 6.80D-15 3.33D-09 XBig12= 1.22D+00 2.01D-01.
     27 vectors produced by pass  2 Test12= 6.80D-15 3.33D-09 XBig12= 2.00D-02 2.91D-02.
     27 vectors produced by pass  3 Test12= 6.80D-15 3.33D-09 XBig12= 6.82D-05 1.48D-03.
     27 vectors produced by pass  4 Test12= 6.80D-15 3.33D-09 XBig12= 1.04D-07 5.32D-05.
     16 vectors produced by pass  5 Test12= 6.80D-15 3.33D-09 XBig12= 7.83D-11 1.34D-06.
      3 vectors produced by pass  6 Test12= 6.80D-15 3.33D-09 XBig12= 8.49D-14 5.03D-08.
 InvSVY:  IOpt=1 It=  1 EMax= 4.00D-15
 Solved reduced A of dimension   154 with    30 vectors.
 Isotropic polarizability for W=    0.000000       28.30 Bohr**3.
 End of Minotr F.D. properties file   721 does not exist.
 End of Minotr F.D. properties file   722 does not exist.
 End of Minotr F.D. properties file   788 does not exist.

 **********************************************************************

            Population analysis using the SCF Density.

 **********************************************************************

 Orbital symmetries:
       Occupied  (A) (A) (A) (A) (A) (A) (A) (A) (A) (A) (A) (A)
                 (A) (A) (A) (A) (A)
       Virtual   (A) (A) (A) (A) (A) (A) (A) (A) (A) (A) (A) (A)
                 (A) (A) (A) (A) (A) (A) (A) (A) (A) (A) (A) (A)
                 (A) (A) (A) (A) (A) (A) (A) (A) (A) (A) (A) (A)
                 (A) (A) (A) (A) (A) (A) (A) (A) (A) (A) (A) (A)
                 (A) (A) (A) (A) (A) (A) (A) (A) (A) (A) (A) (A)
                 (A) (A) (A) (A) (A) (A) (A) (A) (A) (A) (A) (A)
                 (A) (A) (A) (A) (A) (A) (A) (A) (A) (A) (A) (A)
                 (A) (A) (A) (A) (A) (A) (A) (A) (A) (A) (A) (A)
                 (A) (A) (A) (A) (A) (A) (A) (A) (A) (A) (A) (A)
                 (A) (A) (A) (A) (A) (A) (A) (A) (A) (A) (A) (A)
 The electronic state is 1-A.
 Alpha  occ. eigenvalues --  -24.66779 -19.14486 -10.25132 -10.23454  -1.18258
 Alpha  occ. eigenvalues --   -1.02629  -0.74683  -0.62099  -0.52924  -0.50030
 Alpha  occ. eigenvalues --   -0.46431  -0.45442  -0.42266  -0.36532  -0.32961
 Alpha  occ. eigenvalues --   -0.32232  -0.27756
 Alpha virt. eigenvalues --    0.06170   0.10790   0.14478   0.14910   0.15687
 Alpha virt. eigenvalues --    0.20028   0.21719   0.24884   0.42950   0.46802
 Alpha virt. eigenvalues --    0.49640   0.51671   0.53600   0.62847   0.65546
 Alpha virt. eigenvalues --    0.66472   0.69424   0.71828   0.77813   0.78830
 Alpha virt. eigenvalues --    0.79668   0.85520   0.88166   0.88889   0.91562
 Alpha virt. eigenvalues --    0.93453   0.95756   0.99617   1.04617   1.06733
 Alpha virt. eigenvalues --    1.09143   1.11082   1.24580   1.26932   1.28744
 Alpha virt. eigenvalues --    1.37893   1.40806   1.41906   1.51124   1.55939
 Alpha virt. eigenvalues --    1.60101   1.62776   1.64911   1.71824   1.74829
 Alpha virt. eigenvalues --    1.90793   1.93722   2.03177   2.15019   2.18824
 Alpha virt. eigenvalues --    2.24760   2.41534   2.47771   2.51446   2.53713
 Alpha virt. eigenvalues --    2.58997   2.71936   2.72934   2.79876   2.84731
 Alpha virt. eigenvalues --    2.87896   2.88553   2.91250   2.95935   3.05793
 Alpha virt. eigenvalues --    3.16114   3.28233   3.31129   3.36797   3.39611
 Alpha virt. eigenvalues --    3.40875   3.46411   3.56505   3.64113   3.72457
 Alpha virt. eigenvalues --    3.85108   3.87427   3.91624   4.12251   4.17576
 Alpha virt. eigenvalues --    4.19718   4.29064   4.38881   4.41178   4.41968
 Alpha virt. eigenvalues --    4.43365   4.49810   4.50860   4.52898   4.55052
 Alpha virt. eigenvalues --    4.61118   4.65198   4.66901   4.70667   4.72569
 Alpha virt. eigenvalues --    4.77235   4.80976   4.85935   4.96583   5.22727
 Alpha virt. eigenvalues --    5.31078   5.39304   5.46305   5.49174   5.80330
 Alpha virt. eigenvalues --    5.91721   5.97157   6.07341   6.66751   6.67728
 Alpha virt. eigenvalues --    6.79240   6.80070   7.02446   7.25178   7.30654
 Alpha virt. eigenvalues --    7.35141   9.54505  11.07222  11.83448  13.14389
          Condensed to atoms (all electrons):
               1          2          3          4          5          6
     1  C    4.893652   0.357621   0.359038   0.353837  -0.039678  -0.043679
     2  H    0.357621   0.663641  -0.059170  -0.036077   0.007139  -0.007906
     3  H    0.359038  -0.059170   0.663238  -0.028590  -0.009844   0.007123
     4  C    0.353837  -0.036077  -0.028590   4.689568   0.354533   0.354441
     5  H   -0.039678   0.007139  -0.009844   0.354533   0.648388  -0.053541
     6  H   -0.043679  -0.007906   0.007123   0.354441  -0.053541   0.644411
     7  F   -0.033584   0.004630   0.002343   0.375341  -0.020968  -0.020962
     8  O    0.296995  -0.027311  -0.027778  -0.025393   0.005021   0.007263
     9  H   -0.044316  -0.002672  -0.004406   0.005425  -0.000261  -0.000172
               7          8          9
     1  C   -0.033584   0.296995  -0.044316
     2  H    0.004630  -0.027311  -0.002672
     3  H    0.002343  -0.027778  -0.004406
     4  C    0.375341  -0.025393   0.005425
     5  H   -0.020968   0.005021  -0.000261
     6  H   -0.020962   0.007263  -0.000172
     7  F    8.847630   0.000608  -0.000045
     8  O    0.000608   7.882861   0.304703
     9  H   -0.000045   0.304703   0.447190
 Mulliken charges:
               1
     1  C   -0.099888
     2  H    0.100105
     3  H    0.098045
     4  C   -0.043085
     5  H    0.109211
     6  H    0.113021
     7  F   -0.154992
     8  O   -0.416970
     9  H    0.294553
 Sum of Mulliken charges =  -0.00000
 Mulliken charges with hydrogens summed into heavy atoms:
               1
     1  C    0.098262
     4  C    0.179147
     7  F   -0.154992
     8  O   -0.122417
 APT charges:
               1
     1  C    0.462623
     2  H   -0.078440
     3  H   -0.079551
     4  C    0.569724
     5  H   -0.051636
     6  H   -0.046368
     7  F   -0.459737
     8  O   -0.561027
     9  H    0.244412
 Sum of APT charges =   0.00000
 APT charges with hydrogens summed into heavy atoms:
               1
     1  C    0.304632
     4  C    0.471720
     7  F   -0.459737
     8  O   -0.316614
 Electronic spatial extent (au):  <R**2>=            326.3130
 Charge=             -0.0000 electrons
 Dipole moment (field-independent basis, Debye):
    X=              1.5694    Y=              0.7686    Z=              0.3234  Tot=              1.7772
 Quadrupole moment (field-independent basis, Debye-Ang):
   XX=            -23.9625   YY=            -22.9430   ZZ=            -23.1139
   XY=              3.9865   XZ=              0.1947   YZ=             -0.0080
 Traceless Quadrupole moment (field-independent basis, Debye-Ang):
   XX=             -0.6227   YY=              0.3968   ZZ=              0.2259
   XY=              3.9865   XZ=              0.1947   YZ=             -0.0080
 Octapole moment (field-independent basis, Debye-Ang**2):
  XXX=             13.5515  YYY=              0.5103  ZZZ=             -0.3520  XYY=             -2.1347
  XXY=              5.9648  XXZ=              0.7325  XZZ=             -2.7490  YZZ=              0.1557
  YYZ=             -0.2808  XYZ=              0.0550
 Hexadecapole moment (field-independent basis, Debye-Ang**3):
 XXXX=           -216.5757 YYYY=            -62.2991 ZZZZ=            -33.5299 XXXY=             12.2688
 XXXZ=              1.3503 YYYX=             -2.5968 YYYZ=              0.0281 ZZZX=              0.5383
 ZZZY=             -0.1060 XXYY=            -51.4789 XXZZ=            -48.7292 YYZZ=            -14.6186
 XXYZ=             -0.0225 YYXZ=              0.1553 ZZXY=             -0.2420
 N-N= 1.280896024467D+02 E-N=-8.558538526698D+02  KE= 2.526720491218D+02
  Exact polarizability:      31.213       0.629      27.883       0.014       0.097      25.813
 Approx polarizability:      39.610      -1.370      37.883       0.172       0.242      35.063
 Calling FoFJK, ICntrl=    100127 FMM=F ISym2X=0 I1Cent= 0 IOpClX= 0 NMat=1 NMatS=1 NMatT=0.
 Full mass-weighted force constant matrix:
 Low frequencies ---   -7.0601   -5.6704   -0.0007    0.0007    0.0009    4.9451
 Low frequencies ---  117.1273  219.2449  287.0997
 Diagonal vibrational polarizability:
        7.4643738       3.2056042      90.7782546
 Harmonic frequencies (cm**-1), IR intensities (KM/Mole), Raman scattering
 activities (A**4/AMU), depolarization ratios for plane and unpolarized
 incident light, reduced masses (AMU), force constants (mDyne/A),
 and normal coordinates:
                      1                      2                      3
                      A                      A                      A
 Frequencies --    117.1270               219.2408               287.0437
 Red. masses --      3.3746                 1.0863                 3.6955
 Frc consts  --      0.0273                 0.0308                 0.1794
 IR Inten    --     16.4008               104.1661                13.6946
  Atom  AN      X      Y      Z        X      Y      Z        X      Y      Z
     1   6    -0.01  -0.00  -0.21     0.01   0.02  -0.05     0.11   0.23   0.03
     2   1     0.18  -0.15  -0.37     0.02   0.02  -0.05     0.30   0.28   0.05
     3   1    -0.25   0.16  -0.33     0.02   0.03  -0.06     0.26   0.18   0.06
     4   6     0.01  -0.01  -0.23     0.01   0.02   0.00     0.11   0.22  -0.03
     5   1     0.23  -0.21  -0.35     0.05   0.05   0.02     0.28   0.15  -0.08
     6   1    -0.19   0.16  -0.40    -0.01  -0.01   0.03     0.30   0.28  -0.06
     7   9    -0.02   0.01   0.18    -0.01  -0.01   0.02    -0.10  -0.17   0.00
     8   8     0.02  -0.01   0.21    -0.01  -0.00  -0.05    -0.12  -0.16   0.02
     9   1    -0.00   0.06  -0.02     0.02  -0.16   0.98     0.10  -0.40  -0.26
                      4                      5                      6
                      A                      A                      A
 Frequencies --    470.1569               821.5160              1019.8281
 Red. masses --      7.7933                 1.0943                 2.5743
 Frc consts  --      1.0150                 0.4351                 1.5774
 IR Inten    --      1.3057                 0.9301                39.6129
  Atom  AN      X      Y      Z        X      Y      Z        X      Y      Z
     1   6    -0.23   0.10  -0.01    -0.00  -0.00  -0.06    -0.14  -0.21  -0.00
     2   1    -0.34   0.03  -0.05     0.21   0.38   0.22    -0.09  -0.18   0.01
     3   1    -0.32   0.14  -0.03    -0.20  -0.41   0.22    -0.06  -0.21  -0.00
     4   6     0.20  -0.12  -0.00     0.00   0.00  -0.06     0.08   0.26   0.00
     5   1     0.26  -0.16  -0.03     0.20   0.41   0.21     0.21   0.23  -0.02
     6   1     0.29  -0.06  -0.05    -0.21  -0.38   0.23     0.23   0.29  -0.01
     7   9     0.39   0.04   0.01     0.01  -0.00   0.01     0.03  -0.04   0.00
     8   8    -0.42  -0.02   0.01    -0.01   0.00   0.02     0.02  -0.04  -0.01
     9   1    -0.23  -0.27   0.01    -0.01   0.01  -0.04    -0.46   0.56   0.08
                      7                      8                      9
                      A                      A                      A
 Frequencies --   1091.7734              1099.0605              1172.4743
 Red. masses --      6.3968                 5.2372                 1.5378
 Frc consts  --      4.4924                 3.7273                 1.2456
 IR Inten    --     70.2798                96.3948                 0.5387
  Atom  AN      X      Y      Z        X      Y      Z        X      Y      Z
     1   6     0.42  -0.30  -0.02    -0.02  -0.05   0.01     0.00  -0.02   0.16
     2   1     0.36  -0.26  -0.03    -0.26  -0.14  -0.01     0.24  -0.42  -0.20
     3   1     0.51  -0.15  -0.09    -0.24  -0.12   0.04    -0.41   0.41  -0.13
     4   6     0.02   0.04  -0.00     0.43  -0.17   0.02     0.01   0.02  -0.13
     5   1    -0.13  -0.03  -0.04     0.52  -0.02   0.09    -0.15   0.39   0.10
     6   1    -0.15  -0.00  -0.00     0.46  -0.14   0.03     0.09  -0.30   0.15
     7   9    -0.03  -0.02  -0.00    -0.27   0.17  -0.02     0.00  -0.01   0.03
     8   8    -0.32   0.24   0.03    -0.02  -0.01   0.00    -0.00   0.01  -0.05
     9   1    -0.18   0.03   0.02     0.02  -0.06  -0.01     0.08  -0.10  -0.01
                     10                     11                     12
                      A                      A                      A
 Frequencies --   1233.2731              1249.5427              1297.4999
 Red. masses --      1.1583                 1.1738                 1.1009
 Frc consts  --      1.0380                 1.0798                 1.0919
 IR Inten    --      2.9236                38.0197                 1.4237
  Atom  AN      X      Y      Z        X      Y      Z        X      Y      Z
     1   6     0.00  -0.01   0.03    -0.01   0.06   0.03     0.00  -0.01  -0.07
     2   1     0.41  -0.07  -0.07     0.54   0.07  -0.05     0.44   0.14  -0.01
     3   1    -0.47   0.05  -0.01     0.30   0.18  -0.04    -0.46  -0.18   0.05
     4   6    -0.00   0.01   0.09    -0.01  -0.09  -0.01     0.00   0.00   0.06
     5   1     0.49  -0.22  -0.04     0.07  -0.06   0.02    -0.47  -0.14  -0.05
     6   1    -0.48   0.21  -0.12     0.09  -0.10   0.02     0.51   0.13   0.00
     7   9     0.00  -0.00  -0.04    -0.01   0.02   0.00    -0.00   0.00   0.01
     8   8    -0.00   0.01  -0.03    -0.01  -0.04  -0.02    -0.00   0.01  -0.01
     9   1     0.05  -0.05  -0.02    -0.48   0.54   0.08     0.04  -0.05  -0.02
                     13                     14                     15
                      A                      A                      A
 Frequencies --   1397.4891              1475.9573              1519.1777
 Red. masses --      1.2823                 1.5359                 1.0818
 Frc consts  --      1.4755                 1.9714                 1.4710
 IR Inten    --      7.7760                 4.1146                 0.0576
  Atom  AN      X      Y      Z        X      Y      Z        X      Y      Z
     1   6    -0.06  -0.06   0.00     0.17   0.06  -0.00    -0.02   0.04   0.00
     2   1     0.21  -0.01  -0.00    -0.50  -0.11  -0.04     0.11  -0.25  -0.22
     3   1     0.26  -0.00  -0.03    -0.51  -0.10   0.10     0.12  -0.27   0.19
     4   6    -0.12  -0.03  -0.01    -0.11  -0.03  -0.00     0.02  -0.07   0.01
     5   1     0.60   0.10   0.08     0.32   0.10   0.09    -0.16   0.49   0.33
     6   1     0.59   0.08  -0.01     0.33   0.10  -0.06    -0.12   0.45  -0.40
     7   9     0.00   0.02  -0.00     0.01   0.01  -0.00     0.00  -0.01   0.00
     8   8     0.01   0.05   0.01    -0.01  -0.05  -0.01    -0.00   0.01   0.00
     9   1     0.25  -0.27  -0.04    -0.28   0.30   0.05     0.01  -0.01  -0.00
                     16                     17                     18
                      A                      A                      A
 Frequencies --   1533.4613              2981.1954              3014.3541
 Red. masses --      1.0869                 1.0549                 1.1062
 Frc consts  --      1.5059                 5.5237                 5.9223
 IR Inten    --      3.8408                48.5678                37.3833
  Atom  AN      X      Y      Z        X      Y      Z        X      Y      Z
     1   6     0.01  -0.07  -0.01    -0.00   0.06  -0.01    -0.01  -0.00  -0.09
     2   1    -0.07   0.47   0.40     0.09  -0.46   0.61     0.06  -0.39   0.47
     3   1    -0.12   0.49  -0.34     0.01  -0.33  -0.54    -0.00   0.42   0.63
     4   6     0.01  -0.04   0.01    -0.00  -0.00  -0.00    -0.00  -0.00   0.02
     5   1    -0.06   0.28   0.19     0.00   0.02  -0.04     0.00   0.09  -0.14
     6   1    -0.02   0.27  -0.23    -0.00   0.02   0.03     0.01  -0.08  -0.09
     7   9    -0.00  -0.00  -0.00     0.00  -0.00   0.00    -0.00  -0.00   0.00
     8   8     0.00  -0.01  -0.00    -0.00   0.00   0.00     0.00   0.00   0.00
     9   1    -0.01   0.01   0.00    -0.00   0.01   0.00     0.00  -0.00   0.00
                     19                     20                     21
                      A                      A                      A
 Frequencies --   3033.2231              3084.7678              3842.3243
 Red. masses --      1.0553                 1.1105                 1.0666
 Frc consts  --      5.7204                 6.2260                 9.2779
 IR Inten    --     40.1410                55.5416                28.8513
  Atom  AN      X      Y      Z        X      Y      Z        X      Y      Z
     1   6    -0.00   0.00  -0.00    -0.00  -0.00  -0.02     0.00  -0.00  -0.00
     2   1     0.01  -0.03   0.04     0.01  -0.08   0.10     0.00  -0.00  -0.00
     3   1     0.00  -0.01  -0.02     0.00   0.08   0.13     0.00   0.00   0.00
     4   6    -0.00   0.07  -0.00     0.01  -0.00  -0.09     0.00   0.00  -0.00
     5   1    -0.01  -0.34   0.58    -0.02  -0.38   0.60     0.00  -0.00   0.00
     6   1     0.07  -0.44  -0.58    -0.05   0.42   0.51     0.00   0.00   0.00
     7   9    -0.00   0.00  -0.00    -0.00   0.00   0.00     0.00  -0.00   0.00
     8   8     0.00  -0.00  -0.00     0.00   0.00   0.00    -0.05  -0.04  -0.00
     9   1     0.00  -0.00  -0.00    -0.00  -0.00   0.00     0.78   0.61   0.07

 -------------------
 - Thermochemistry -
 -------------------
 Temperature   298.150 Kelvin.  Pressure   1.00000 Atm.
 Atom     1 has atomic number  6 and mass  12.00000
 Atom     2 has atomic number  1 and mass   1.00783
 Atom     3 has atomic number  1 and mass   1.00783
 Atom     4 has atomic number  6 and mass  12.00000
 Atom     5 has atomic number  1 and mass   1.00783
 Atom     6 has atomic number  1 and mass   1.00783
 Atom     7 has atomic number  9 and mass  18.99840
 Atom     8 has atomic number  8 and mass  15.99491
 Atom     9 has atomic number  1 and mass   1.00783
 Molecular mass:    64.03244 amu.
 Principal axes and moments of inertia in atomic units:
                           1         2         3
     Eigenvalues --    58.23318 457.06922 491.03586
           X            0.99951   0.03120  -0.00071
           Y           -0.03120   0.99951   0.00023
           Z            0.00071  -0.00021   1.00000
 This molecule is an asymmetric top.
 Rotational symmetry number  1.
 Rotational temperatures (Kelvin)      1.48736     0.18950     0.17639
 Rotational constants (GHZ):          30.99163     3.94851     3.67538
 Zero-point vibrational energy     191166.2 (Joules/Mol)
                                   45.68981 (Kcal/Mol)
 Warning -- explicit consideration of   4 degrees of freedom as
           vibrations may cause significant error
 Vibrational temperatures:    168.52   315.44   412.99   676.45  1181.98
          (Kelvin)           1467.31  1570.82  1581.30  1686.93  1774.40
                             1797.81  1866.81  2010.68  2123.57  2185.76
                             2206.31  4289.28  4336.98  4364.13  4438.29
                             5528.25
 
 Zero-point correction=                           0.072811 (Hartree/Particle)
 Thermal correction to Energy=                    0.077799
 Thermal correction to Enthalpy=                  0.078743
 Thermal correction to Gibbs Free Energy=         0.045287
 Sum of electronic and zero-point Energies=           -254.207833
 Sum of electronic and thermal Energies=              -254.202846
 Sum of electronic and thermal Enthalpies=            -254.201902
 Sum of electronic and thermal Free Energies=         -254.235358
 
                     E (Thermal)             CV                S
                      KCal/Mol        Cal/Mol-Kelvin    Cal/Mol-Kelvin
 Total                   48.819             15.320             70.414
 Electronic               0.000              0.000              0.000
 Translational            0.889              2.981             38.389
 Rotational               0.889              2.981             24.084
 Vibrational             47.042              9.358              7.941
 Vibration     1          0.608              1.935              3.147
 Vibration     2          0.647              1.812              1.965
 Vibration     3          0.684              1.698              1.491
 Vibration     4          0.827              1.316              0.737
                       Q            Log10(Q)             Ln(Q)
 Total Bot       0.147732D-20        -20.830525        -47.964057
 Total V=0       0.457446D+13         12.660339         29.151509
 Vib (Bot)       0.179243D-32        -32.746558        -75.401736
 Vib (Bot)    1  0.174590D+01          0.242019          0.557268
 Vib (Bot)    2  0.902507D+00         -0.044549         -0.102579
 Vib (Bot)    3  0.667285D+00         -0.175688         -0.404538
 Vib (Bot)    4  0.358714D+00         -0.445252         -1.025231
 Vib (V=0)       0.555018D+01          0.744307          1.713830
 Vib (V=0)    1  0.231608D+01          0.364754          0.839877
 Vib (V=0)    2  0.153176D+01          0.185189          0.426414
 Vib (V=0)    3  0.133383D+01          0.125100          0.288053
 Vib (V=0)    4  0.111537D+01          0.047417          0.109183
 Electronic      0.100000D+01          0.000000          0.000000
 Translational   0.201397D+08          7.304054         16.818206
 Rotational      0.409240D+05          4.611978         10.619473
 ***** Axes restored to original set *****
 -------------------------------------------------------------------
 Center     Atomic                   Forces (Hartrees/Bohr)
 Number     Number              X              Y              Z
 -------------------------------------------------------------------
      1        6           0.000141308    0.000149851    0.001030343
      2        1           0.000002977   -0.000002674    0.000007307
      3        1           0.000003147   -0.000016276    0.000010243
      4        6          -0.000207809   -0.000205625    0.001160151
      5        1           0.000004635    0.000010989    0.000006882
      6        1           0.000007270    0.000005909    0.000001135
      7        9           0.000131255    0.000144796   -0.001127010
      8        8          -0.000090922   -0.000093045   -0.001088604
      9        1           0.000008139    0.000006076   -0.000000447
 -------------------------------------------------------------------
 Cartesian Forces:  Max     0.001160151 RMS     0.000432333

 GradGradGradGradGradGradGradGradGradGradGradGradGradGradGradGradGradGrad
 Berny optimization.
 Search for a local minimum.
 Step number   1 out of a maximum of    2
 All quantities printed in internal units (Hartrees-Bohrs-Radians)
 Second derivative matrix not updated -- analytic derivatives used.
 ITU=  0
     Eigenvalues ---    0.00209   0.00273   0.01454   0.03046   0.05023
     Eigenvalues ---    0.06692   0.07642   0.08282   0.11866   0.11986
     Eigenvalues ---    0.15366   0.17112   0.21529   0.31044   0.47294
     Eigenvalues ---    0.66725   0.73722   0.75244   0.83144   0.84086
     Eigenvalues ---    1.04593
 Quadratic step=4.744D-01 exceeds max=3.000D-01 adjusted using Lamda=-1.248D-03.
 Angle between NR and scaled steps=   1.98 degrees.
 Angle between quadratic step and forces=  60.83 degrees.
 Linear search not attempted -- first point.
 B after Tr=    -0.000143    0.000526   -0.028809
         Rot=    0.999999   -0.000020   -0.001446   -0.000620 Ang=  -0.18 deg.
 Variable       Old X    -DE/DX   Delta X   Delta X   Delta X     New X
                                 (Linear)    (Quad)   (Total)
    X1       -1.04860   0.00014   0.00000   0.00212   0.00067  -1.04793
    Y1        0.94297   0.00015   0.00000  -0.00113  -0.00190   0.94108
    Z1       -0.09499   0.00103   0.00000   0.04597   0.02023  -0.07476
    X2       -0.78216   0.00000   0.00000  -0.06290  -0.06107  -0.84322
    Y2        2.22936  -0.00000   0.00000  -0.05115  -0.05174   2.17763
    Z2        1.51831   0.00001   0.00000   0.09612   0.06983   1.58815
    X3       -1.00269   0.00000   0.00000   0.07808   0.07023  -0.93246
    Y3        2.08675  -0.00002   0.00000   0.05275   0.05220   2.13895
    Z3       -1.83057   0.00001   0.00000   0.08253   0.05649  -1.77408
    X4        1.12555  -0.00021   0.00000  -0.00218  -0.00134   1.12421
    Y4       -0.93911  -0.00021   0.00000  -0.00319  -0.00127  -0.94039
    Z4       -0.11083   0.00116   0.00000   0.04734   0.01525  -0.09558
    X5        1.14431   0.00000   0.00000  -0.07922  -0.08190   1.06241
    Y5       -2.04570   0.00001   0.00000  -0.06240  -0.06048  -2.10618
    Z5       -1.86164   0.00001   0.00000   0.08342   0.05145  -1.81019
    X6        0.92497   0.00001   0.00000   0.06889   0.07605   1.00102
    Y6       -2.23739   0.00001   0.00000   0.05042   0.05212  -2.18527
    Z6        1.49180   0.00000   0.00000   0.09915   0.06737   1.55917
    X7        3.37583   0.00013   0.00000   0.00484   0.00426   3.38009
    Y7        0.35361   0.00014   0.00000   0.00932   0.01404   0.36764
    Z7        0.10920  -0.00113   0.00000  -0.09929  -0.13787  -0.02867
    X8       -3.30189  -0.00009   0.00000  -0.00699  -0.00646  -3.30834
    Y8       -0.48590  -0.00009   0.00000  -0.00708  -0.01065  -0.49656
    Z8        0.11856  -0.00109   0.00000  -0.10039  -0.11965  -0.00110
    X9       -4.71347   0.00001   0.00000   0.00055  -0.00045  -4.71392
    Y9        0.64859   0.00001   0.00000   0.01300   0.00768   0.65628
    Z9       -0.01428  -0.00000   0.00000  -0.00795  -0.02310  -0.03739
         Item               Value     Threshold  Converged?
 Maximum Force            0.001160     0.000450     NO 
 RMS     Force            0.000432     0.000300     NO 
 Maximum Displacement     0.137868     0.001800     NO 
 RMS     Displacement     0.055484     0.001200     NO 
 Predicted change in Energy=-2.211113D-04
 GradGradGradGradGradGradGradGradGradGradGradGradGradGradGradGradGradGrad


 ----------------------------------------------------------------------

 Electric dipole moment (input orientation):
 (Debye = 10**-18 statcoulomb cm , SI units = C m)
                  (au)            (Debye)         (10**-30 SI)
   Tot        0.699196D+00      0.177718D+01      0.592803D+01
   x         -0.617452D+00     -0.156941D+01     -0.523497D+01
   y          0.302393D+00      0.768606D+00      0.256379D+01
   z         -0.127229D+00     -0.323385D+00     -0.107870D+01

 Dipole polarizability, Alpha (input orientation).
 (esu units = cm**3 , SI units = C**2 m**2 J**-1)
 Alpha(0;0):
               (au)            (10**-24 esu)      (10**-40 SI)
   iso        0.283029D+02      0.419406D+01      0.466652D+01
   aniso      0.484643D+01      0.718167D+00      0.799068D+00
   xx         0.312133D+02      0.462533D+01      0.514637D+01
   yx        -0.628857D+00     -0.931869D-01     -0.103684D+00
   yy         0.278828D+02      0.413181D+01      0.459726D+01
   zx         0.136527D-01      0.202312D-02      0.225103D-02
   zy        -0.970435D-01     -0.143804D-01     -0.160003D-01
   zz         0.258126D+02      0.382503D+01      0.425592D+01

 ----------------------------------------------------------------------

 Dipole orientation:
     6          0.03183046         -0.41383913          1.35111433
     1         -0.88654014         -2.28048437          1.37860084
     1          1.94970807         -0.64083270          2.12105275
     6          0.17734518          0.47473802         -1.37994645
     1          1.37228674          2.15734734         -1.55650645
     1         -1.72566173          0.93926337         -2.05592267
     9          1.16632957         -1.43569218         -2.84809345
     8         -1.38505235          1.42465982          2.68413594
     1         -1.38139633          0.98326686          4.44551565

 Electric dipole moment (dipole orientation):
 (Debye = 10**-18 statcoulomb cm , SI units = C m)
                  (au)            (Debye)         (10**-30 SI)
   Tot        0.699196D+00      0.177718D+01      0.592803D+01
   x          0.000000D+00      0.000000D+00      0.000000D+00
   y          0.000000D+00      0.000000D+00      0.000000D+00
   z          0.699196D+00      0.177718D+01      0.592803D+01

 Dipole polarizability, Alpha (dipole orientation).
 (esu units = cm**3 , SI units = C**2 m**2 J**-1)
 Alpha(0;0):
               (au)            (10**-24 esu)      (10**-40 SI)
   iso        0.283029D+02      0.419406D+01      0.466652D+01
   aniso      0.484643D+01      0.718167D+00      0.799068D+00
   xx         0.265627D+02      0.393619D+01      0.437960D+01
   yx        -0.967749D+00     -0.143406D+00     -0.159560D+00
   yy         0.274344D+02      0.406536D+01      0.452332D+01
   zx        -0.119378D+01     -0.176900D+00     -0.196827D+00
   zy         0.417135D+00      0.618130D-01      0.687762D-01
   zz         0.309115D+02      0.458061D+01      0.509662D+01

 ----------------------------------------------------------------------
 Unable to Open any file for archive entry.
 1\1\GINC-COMPUTE-2-4\Freq\RB3LYP\6-31G(2df,p)\C2H5F1O1\JINGDAN2\05-Dec
 -2024\0\\# freq b3lyp/6-31g(2df,p)\\energy: -15.614184499692 gnorm: 0.
 000439253721 xtb: 6.6.1 (8d0f1dd)\\0,1\C,-0.554896,0.499,-0.050264\H,-
 0.413899,1.179728,0.803457\H,-0.5306,1.10426,-0.968696\C,0.595615,-0.4
 96958,-0.058647\H,0.605542,-1.082536,-0.985139\H,0.489471,-1.183976,0.
 789426\F,1.786411,0.18712,0.057786\O,-1.747283,-0.257129,0.062738\H,-2
 .494261,0.343221,-0.007559\\Version=ES64L-G16RevC.01\State=1-A\HF=-254
 .2806448\RMSD=2.467e-09\RMSF=4.323e-04\ZeroPoint=0.0728113\Thermal=0.0
 777987\ETot=-254.2028461\HTot=-254.2019019\GTot=-254.2353579\Dipole=-0
 .6174517,0.3023928,-0.1272294\DipoleDeriv=0.6488077,0.2044049,-0.00729
 1,0.2888878,0.33737,-0.0108996,-0.0199975,-0.0100784,0.4016922,-0.0447
 536,-0.0192746,-0.0144661,-0.0432803,-0.0810551,-0.0913296,-0.02873,-0
 .1222495,-0.1095121,-0.0439142,0.006145,-0.0020719,-0.0282363,-0.06466
 84,0.0937345,0.0158252,0.1237696,-0.1300702,0.80924,0.1762873,0.022876
 9,0.2020804,0.4820319,0.0275289,0.033424,0.0203086,0.4178994,-0.014362
 ,0.0161526,0.0185756,0.0005817,-0.0380028,-0.0722574,0.0028833,-0.1089
 454,-0.1025435,-0.0065612,-0.0056536,-0.0051883,-0.0135238,-0.0515099,
 0.0719248,0.008821,0.1083509,-0.0810332,-0.7710183,-0.1931211,-0.03191
 85,-0.2313323,-0.3690273,-0.0235265,-0.0445953,-0.0242189,-0.2391662,-
 0.8054317,-0.2391923,0.0248269,-0.2486037,-0.3909289,-0.0139385,0.0345
 86,-0.0037941,-0.4867198,0.2279932,0.0542518,-0.0053435,0.0734265,0.17
 57906,0.0187635,-0.0022167,0.0168572,0.3294534\Polar=31.2132633,-0.628
 8566,27.8828443,0.0136527,-0.0970435,25.8125603\Quadrupole=-0.4629827,
 0.2950075,0.1679752,-2.963886,0.1447637,0.0059321\PG=C01 [X(C2H5F1O1)]
 \NImag=0\\0.48258285,-0.00763937,0.54638656,0.01255234,-0.00291788,0.5
 8641686,-0.05131830,-0.00825310,-0.01634077,0.06141972,-0.00944789,-0.
 13459648,-0.10932272,0.02069285,0.15292909,-0.01621779,-0.11205657,-0.
 20838335,0.02130783,0.12586789,0.21728518,-0.05142785,0.00516859,-0.00
 563341,0.00356663,0.00242413,-0.00118735,0.05829612,0.00323730,-0.1161
 3379,0.10254927,0.00030698,0.01065075,-0.01613327,0.00347256,0.1318490
 3,-0.00512646,0.10618522,-0.22929593,-0.00212956,0.01343362,-0.0223385
 8,-0.00055041,-0.12066933,0.24219217,-0.11847739,0.07111938,0.00203305
 ,0.00154977,-0.00081935,-0.00131030,0.00099938,0.00079192,0.00157889,0
 .47549069,0.07292338,-0.15142843,-0.00026992,0.01676209,-0.01655202,-0
 .00081679,0.01597914,-0.01427097,-0.00121329,0.00752323,0.54781000,0.0
 0039354,0.00056531,-0.08520027,0.02138954,-0.02213330,-0.00110515,-0.0
 2312050,0.02125568,0.00047200,-0.01181499,-0.00059432,0.61684729,0.001
 11254,0.01516832,0.02258047,-0.00453355,0.00321715,-0.00014695,0.00127
 751,-0.00097277,-0.00054382,-0.05077356,0.00972912,0.01534366,0.059727
 10,0.00240938,-0.01246474,-0.02120549,0.00307617,-0.00240155,-0.000058
 72,-0.00107675,0.00099367,0.00012456,0.00702639,-0.11633029,-0.1049802
 6,0.00000893,0.13041545,-0.00184345,0.00169642,0.00078691,-0.00031108,
 0.00050514,0.00157652,0.00050137,-0.00012107,0.00135032,0.00997092,-0.
 11033734,-0.24340620,-0.00524261,0.12416057,0.25474070,0.00182887,0.01
 668033,-0.02070165,0.00106771,-0.00076746,0.00042870,-0.00447983,0.003
 09229,0.00043091,-0.05022610,-0.00426452,0.00840417,0.00393865,0.00027
 064,0.00258168,0.06161158,0.00087360,-0.01554255,0.02168234,-0.0008660
 4,0.00092569,-0.00014244,0.00328996,-0.00236706,-0.00045227,-0.0073317
 6,-0.14288332,0.11575651,0.00235194,0.01120712,-0.01310281,0.01762805,
 0.16048341,0.00137981,-0.00038552,0.00009313,-0.00042028,0.00016162,0.
 00106449,0.00017391,-0.00008193,0.00160032,0.01334872,0.12111494,-0.21
 662690,0.00058645,0.01674785,-0.02048723,-0.01642029,-0.13349352,0.222
 91639,-0.04063289,-0.03118574,-0.00305872,0.00268224,-0.00095698,0.001
 23349,0.00172648,0.00064470,-0.00152335,-0.21731119,-0.08698281,-0.013
 25219,-0.01303790,-0.01214901,-0.00695440,-0.01676600,-0.01467501,0.00
 220454,0.29642346,0.00772733,0.01200459,0.00031203,-0.00124820,0.00285
 466,0.00123558,-0.00162106,0.00182882,-0.00056379,-0.08886450,-0.11877
 908,-0.00875813,-0.02818192,-0.01271542,-0.00321677,-0.03152379,-0.014
 01726,-0.00321877,0.13749599,0.12927548,-0.00139757,-0.00192224,0.0021
 2538,-0.00070797,0.00204137,0.00059707,0.00153238,-0.00131344,0.000380
 73,-0.01515726,-0.00901851,-0.07209728,-0.03097864,-0.01579935,0.00502
 396,0.02450787,0.01132594,0.01101977,0.02189650,0.01423217,0.05070131,
 -0.19154706,-0.08665787,0.01139046,-0.01608775,-0.01502576,-0.00331883
 ,-0.01240738,-0.01126863,0.00707748,-0.03781017,-0.02502937,0.00240315
 ,0.00189406,0.00035450,0.00110858,0.00251709,-0.00093066,-0.00072993,-
 0.01093736,0.00526042,0.00020165,0.58226220,-0.04109611,-0.13954371,0.
 01017532,-0.02967213,-0.01379972,0.00245494,-0.02691950,-0.01275637,0.
 00265884,0.01231687,0.01523224,-0.00164094,-0.00123367,0.00117812,0.00
 030478,-0.00104575,0.00192933,-0.00049213,0.00965332,-0.00095163,0.000
 63199,-0.13050384,0.38845933,0.00517676,0.01071321,-0.06501991,-0.0220
 2741,-0.01150809,0.01106391,0.02772420,0.01553622,0.00499965,0.0010027
 7,0.00012858,0.00180468,-0.00139182,0.00091392,0.00034472,0.00070162,-
 0.00122179,0.00027123,-0.00094117,0.00023743,0.00157854,0.01359786,-0.
 04338431,0.04969131,-0.03212079,0.02559947,-0.00282177,0.00165352,0.00
 068331,-0.00078880,0.00244894,0.00069566,0.00078634,-0.00344142,-0.006
 64026,0.00025362,0.00039515,0.00007976,0.00018900,0.00050803,-0.000340
 09,-0.00012294,-0.00214683,0.00095573,0.00010303,-0.31788363,0.2085008
 2,-0.02384280,0.35058703,-0.02898761,0.01131855,-0.00100295,-0.0007986
 1,-0.00001042,-0.00035062,-0.00071707,0.00020591,0.00049645,-0.0017621
 7,-0.00279813,0.00052946,-0.00008711,0.00011764,0.00011108,-0.00006979
 ,0.00026465,-0.00035254,-0.00184446,0.00049984,-0.00017793,0.26380121,
 -0.23974758,0.02858484,-0.22953440,0.23014955,0.00508284,-0.00187794,-
 0.00152282,-0.00076031,0.00095448,0.00023990,0.00055981,-0.00102213,0.
 00063930,0.00034821,0.00100665,-0.00068816,-0.00020675,0.00009693,0.00
 007030,0.00006700,-0.00035197,0.00014880,0.00039531,-0.00025974,0.0006
 7052,-0.03173041,0.02929151,-0.00473411,0.02624430,-0.02783778,0.00517
 627\\-0.00014131,-0.00014985,-0.00103034,-0.00000298,0.00000267,-0.000
 00731,-0.00000315,0.00001628,-0.00001024,0.00020781,0.00020563,-0.0011
 6015,-0.00000463,-0.00001099,-0.00000688,-0.00000727,-0.00000591,-0.00
 000114,-0.00013125,-0.00014480,0.00112701,0.00009092,0.00009305,0.0010
 8860,-0.00000814,-0.00000608,0.00000045\\\@
 The archive entry for this job was punched.


 NOT WHAT WE DID SHALL BE THE TEST
 WHEN ACT AND WILL ARE DONE,
 BUT WHAT OUR LORD INFERS WE WOULD-
 HAD WE DIVINER BEEN.
           EMILY DICKINSON  POEMS NO. CLXXV
 Job cpu time:       0 days  0 hours  6 minutes 45.7 seconds.
 Elapsed time:       0 days  0 hours  0 minutes 51.8 seconds.
 File lengths (MBytes):  RWF=     21 Int=      0 D2E=      0 Chk=      2 Scr=      1
 Normal termination of Gaussian 16 at Thu Dec  5 18:23:41 2024.
