 Entering Gaussian System, Link 0=g16
 Input=rotation_std18.gjf
 Output=rotation_std18.log
 Initial command:
 /share/apps/gaussian/g16/l1.exe "/scratch/jingdan2/247445/Gau-451882.inp" -scrdir="/scratch/jingdan2/247445/"
 Entering Link 1 = /share/apps/gaussian/g16/l1.exe PID=    451885.
  
 Copyright (c) 1988-2019, Gaussian, Inc.  All Rights Reserved.
  
 This is part of the Gaussian(R) 16 program.  It is based on
 the Gaussian(R) 09 system (copyright 2009, Gaussian, Inc.),
 the Gaussian(R) 03 system (copyright 2003, Gaussian, Inc.),
 the Gaussian(R) 98 system (copyright 1998, Gaussian, Inc.),
 the Gaussian(R) 94 system (copyright 1995, Gaussian, Inc.),
 the Gaussian 92(TM) system (copyright 1992, Gaussian, Inc.),
 the Gaussian 90(TM) system (copyright 1990, Gaussian, Inc.),
 the Gaussian 88(TM) system (copyright 1988, Gaussian, Inc.),
 the Gaussian 86(TM) system (copyright 1986, Carnegie Mellon
 University), and the Gaussian 82(TM) system (copyright 1983,
 Carnegie Mellon University). Gaussian is a federally registered
 trademark of Gaussian, Inc.
  
 This software contains proprietary and confidential information,
 including trade secrets, belonging to Gaussian, Inc.
  
 This software is provided under written license and may be
 used, copied, transmitted, or stored only in accord with that
 written license.
  
 The following legend is applicable only to US Government
 contracts under FAR:
  
                    RESTRICTED RIGHTS LEGEND
  
 Use, reproduction and disclosure by the US Government is
 subject to restrictions as set forth in subparagraphs (a)
 and (c) of the Commercial Computer Software - Restricted
 Rights clause in FAR 52.227-19.
  
 Gaussian, Inc.
 340 Quinnipiac St., Bldg. 40, Wallingford CT 06492
  
  
 ---------------------------------------------------------------
 Warning -- This program may not be used in any manner that
 competes with the business of Gaussian, Inc. or will provide
 assistance to any competitor of Gaussian, Inc.  The licensee
 of this program is prohibited from giving any competitor of
 Gaussian, Inc. access to this program.  By using this program,
 the user acknowledges that Gaussian, Inc. is engaged in the
 business of creating and licensing software in the field of
 computational chemistry and represents and warrants to the
 licensee that it is not a competitor of Gaussian, Inc. and that
 it will not use this program in any manner prohibited above.
 ---------------------------------------------------------------
  

 Cite this work as:
 Gaussian 16, Revision C.01,
 M. J. Frisch, G. W. Trucks, H. B. Schlegel, G. E. Scuseria, 
 M. A. Robb, J. R. Cheeseman, G. Scalmani, V. Barone, 
 G. A. Petersson, H. Nakatsuji, X. Li, M. Caricato, A. V. Marenich, 
 J. Bloino, B. G. Janesko, R. Gomperts, B. Mennucci, H. P. Hratchian, 
 J. V. Ortiz, A. F. Izmaylov, J. L. Sonnenberg, D. Williams-Young, 
 F. Ding, F. Lipparini, F. Egidi, J. Goings, B. Peng, A. Petrone, 
 T. Henderson, D. Ranasinghe, V. G. Zakrzewski, J. Gao, N. Rega, 
 G. Zheng, W. Liang, M. Hada, M. Ehara, K. Toyota, R. Fukuda, 
 J. Hasegawa, M. Ishida, T. Nakajima, Y. Honda, O. Kitao, H. Nakai, 
 T. Vreven, K. Throssell, J. A. Montgomery, Jr., J. E. Peralta, 
 F. Ogliaro, M. J. Bearpark, J. J. Heyd, E. N. Brothers, K. N. Kudin, 
 V. N. Staroverov, T. A. Keith, R. Kobayashi, J. Normand, 
 K. Raghavachari, A. P. Rendell, J. C. Burant, S. S. Iyengar, 
 J. Tomasi, M. Cossi, J. M. Millam, M. Klene, C. Adamo, R. Cammi, 
 J. W. Ochterski, R. L. Martin, K. Morokuma, O. Farkas, 
 J. B. Foresman, and D. J. Fox, Gaussian, Inc., Wallingford CT, 2019.
 
 ******************************************
 Gaussian 16:  ES64L-G16RevC.01  3-Jul-2019
                 5-Dec-2024 
 ******************************************
 %nprocshared=8
 Will use up to    8 processors via shared memory.
 %mem=8GB
 -------------------------
 # freq b3lyp/6-31g(2df,p)
 -------------------------
 1/10=4,30=1,38=1/1,3;
 2/12=2,17=6,18=5,40=1/2;
 3/5=1,6=6,7=104,11=2,25=1,30=1,71=2,74=-5,140=1/1,2,3;
 4//1;
 5/5=2,38=5,98=1/2;
 8/6=4,10=90,11=11/1;
 11/6=1,8=1,9=11,15=111,16=1/1,2,10;
 10/6=1/2;
 6/7=2,8=2,9=2,10=2,28=1/1;
 7/8=1,10=1,25=1/1,2,3,16;
 1/10=4,30=1/3;
 99//99;
 -------------------------------------------------------------------
 energy: -15.614184499692 gnorm: 0.000439253721 xtb: 6.6.1 (8d0f1dd)
 -------------------------------------------------------------------
 Symbolic Z-matrix:
 Charge =  0 Multiplicity = 1
 C                    -0.73388   0.65694   0.04725 
 H                    -1.02241   1.12791   1.00017 
 H                    -1.11545   1.30059  -0.76013 
 C                     0.8136    0.59437  -0.04915 
 H                     1.27009   1.18584   0.75345 
 H                     1.15274   1.00312  -1.00906 
 F                     1.26606  -0.69613   0.03736 
 O                    -1.24427  -0.65786  -0.03629 
 H                    -2.20372  -0.59732  -0.01903 
 

 GradGradGradGradGradGradGradGradGradGradGradGradGradGradGradGradGradGrad
 Berny optimization.
 Initialization pass.
 Trust Radius=3.00D-01 FncErr=1.00D-07 GrdErr=1.00D-07 EigMax=2.50D+02 EigMin=1.00D-04
 Number of steps in this run=      2 maximum allowed number of steps=      2.
 GradGradGradGradGradGradGradGradGradGradGradGradGradGradGradGradGradGrad

                          Input orientation:                          
 ---------------------------------------------------------------------
 Center     Atomic      Atomic             Coordinates (Angstroms)
 Number     Number       Type             X           Y           Z
 ---------------------------------------------------------------------
      1          6           0       -0.733878    0.656937    0.047253
      2          1           0       -1.022414    1.127906    1.000173
      3          1           0       -1.115447    1.300594   -0.760133
      4          6           0        0.813595    0.594370   -0.049145
      5          1           0        1.270089    1.185842    0.753448
      6          1           0        1.152742    1.003122   -1.009056
      7          9           0        1.266063   -0.696125    0.037363
      8          8           0       -1.244265   -0.657857   -0.036289
      9          1           0       -2.203718   -0.597323   -0.019033
 ---------------------------------------------------------------------
                    Distance matrix (angstroms):
                    1          2          3          4          5
     1  C    0.000000
     2  H    1.101418   0.000000
     3  H    1.100800   1.771201   0.000000
     4  C    1.551734   2.180976   2.173812   0.000000
     5  H    2.189597   2.306469   2.827521   1.096532   0.000000
     6  H    2.189741   2.963760   2.301116   1.097054   1.775831
     7  F    2.414672   3.080782   3.208501   1.370251   2.013602
     8  O    1.412854   2.076637   2.091907   2.408947   3.216347
     9  H    1.933389   2.326086   2.309903   3.244259   3.980419
                    6          7          8          9
     6  H    0.000000
     7  F    1.998818   0.000000
     8  O    3.074210   2.511700   0.000000
     9  H    3.848038   3.471646   0.961516   0.000000
 Stoichiometry    C2H5FO
 Framework group  C1[X(C2H5FO)]
 Deg. of freedom    21
 Full point group                 C1      NOp   1
 Largest Abelian subgroup         C1      NOp   1
 Largest concise Abelian subgroup C1      NOp   1
                         Standard orientation:                         
 ---------------------------------------------------------------------
 Center     Atomic      Atomic             Coordinates (Angstroms)
 Number     Number       Type             X           Y           Z
 ---------------------------------------------------------------------
      1          6           0        0.733878    0.656937   -0.047253
      2          1           0        1.022414    1.127906   -1.000173
      3          1           0        1.115447    1.300594    0.760133
      4          6           0       -0.813595    0.594370    0.049145
      5          1           0       -1.270089    1.185842   -0.753448
      6          1           0       -1.152742    1.003122    1.009056
      7          9           0       -1.266063   -0.696125   -0.037363
      8          8           0        1.244265   -0.657857    0.036289
      9          1           0        2.203718   -0.597323    0.019033
 ---------------------------------------------------------------------
 Rotational constants (GHZ):          14.7816557           6.0883526           4.5687626
 Standard basis: 6-31G(2df,p) (6D, 7F)
 There are   149 symmetry adapted cartesian basis functions of A   symmetry.
 There are   137 symmetry adapted basis functions of A   symmetry.
   137 basis functions,   211 primitive gaussians,   149 cartesian basis functions
    17 alpha electrons       17 beta electrons
       nuclear repulsion energy       131.1084205150 Hartrees.
 NAtoms=    9 NActive=    9 NUniq=    9 SFac= 1.00D+00 NAtFMM=   60 NAOKFM=F Big=F
 Integral buffers will be    131072 words long.
 Raffenetti 2 integral format.
 Two-electron integral symmetry is turned on.
 One-electron integrals computed using PRISM.
 NBasis=   137 RedAO= T EigKep=  1.23D-03  NBF=   137
 NBsUse=   137 1.00D-06 EigRej= -1.00D+00 NBFU=   137
 ExpMin= 1.61D-01 ExpMax= 7.00D+03 ExpMxC= 1.05D+03 IAcc=3 IRadAn=         5 AccDes= 0.00D+00
 Harris functional with IExCor=  402 and IRadAn=       5 diagonalized for initial guess.
 HarFok:  IExCor=  402 AccDes= 0.00D+00 IRadAn=         5 IDoV= 1 UseB2=F ITyADJ=14
 ICtDFT=  3500011 ScaDFX=  1.000000  1.000000  1.000000  1.000000
 FoFCou: FMM=F IPFlag=           0 FMFlag=      100000 FMFlg1=           0
         NFxFlg=           0 DoJE=T BraDBF=F KetDBF=T FulRan=T
         wScrn=  0.000000 ICntrl=       500 IOpCl=  0 I1Cent=   200000004 NGrid=           0
         NMat0=    1 NMatS0=      1 NMatT0=    0 NMatD0=    1 NMtDS0=    0 NMtDT0=    0
 Petite list used in FoFCou.
 Keep R1 ints in memory in canonical form, NReq=52495207.
 Requested convergence on RMS density matrix=1.00D-08 within 128 cycles.
 Requested convergence on MAX density matrix=1.00D-06.
 Requested convergence on             energy=1.00D-06.
 No special actions if energy rises.
 Integral accuracy reduced to 1.0D-05 until final iterations.
 Initial convergence to 1.0D-05 achieved.  Increase integral accuracy.
 SCF Done:  E(RB3LYP) =  -254.270600841     A.U. after   12 cycles
            NFock= 12  Conv=0.47D-08     -V/T= 2.0064
 DoSCS=F DFT=T ScalE2(SS,OS)=  1.000000  1.000000
 Range of M.O.s used for correlation:     1   137
 NBasis=   137 NAE=    17 NBE=    17 NFC=     0 NFV=     0
 NROrb=    137 NOA=    17 NOB=    17 NVA=   120 NVB=   120

 **** Warning!!: The largest alpha MO coefficient is  0.18595092D+02

 Symmetrizing basis deriv contribution to polar:
 IMax=3 JMax=2 DiffMx= 0.00D+00
 G2DrvN: will do    10 centers at a time, making    1 passes.
 Calling FoFCou, ICntrl=  3107 FMM=F I1Cent=   0 AccDes= 0.00D+00.
 End of G2Drv F.D. properties file   721 does not exist.
 End of G2Drv F.D. properties file   722 does not exist.
 End of G2Drv F.D. properties file   788 does not exist.
          IDoAtm=111111111
          Differentiating once with respect to electric field.
                with respect to dipole field.
          Differentiating once with respect to nuclear coordinates.
 Keep R1 ints in memory in canonical form, NReq=52475930.
          There are    30 degrees of freedom in the 1st order CPHF.  IDoFFX=6 NUNeed=     3.
     27 vectors produced by pass  0 Test12= 6.80D-15 3.33D-09 XBig12= 1.57D+01 1.43D+00.
 AX will form    27 AO Fock derivatives at one time.
     27 vectors produced by pass  1 Test12= 6.80D-15 3.33D-09 XBig12= 1.28D+00 2.29D-01.
     27 vectors produced by pass  2 Test12= 6.80D-15 3.33D-09 XBig12= 1.46D-02 3.86D-02.
     27 vectors produced by pass  3 Test12= 6.80D-15 3.33D-09 XBig12= 4.67D-05 1.03D-03.
     27 vectors produced by pass  4 Test12= 6.80D-15 3.33D-09 XBig12= 6.53D-08 4.85D-05.
     16 vectors produced by pass  5 Test12= 6.80D-15 3.33D-09 XBig12= 5.86D-11 1.51D-06.
      3 vectors produced by pass  6 Test12= 6.80D-15 3.33D-09 XBig12= 4.07D-14 3.64D-08.
 InvSVY:  IOpt=1 It=  1 EMax= 8.88D-16
 Solved reduced A of dimension   154 with    30 vectors.
 Isotropic polarizability for W=    0.000000       28.33 Bohr**3.
 End of Minotr F.D. properties file   721 does not exist.
 End of Minotr F.D. properties file   722 does not exist.
 End of Minotr F.D. properties file   788 does not exist.

 **********************************************************************

            Population analysis using the SCF Density.

 **********************************************************************

 Orbital symmetries:
       Occupied  (A) (A) (A) (A) (A) (A) (A) (A) (A) (A) (A) (A)
                 (A) (A) (A) (A) (A)
       Virtual   (A) (A) (A) (A) (A) (A) (A) (A) (A) (A) (A) (A)
                 (A) (A) (A) (A) (A) (A) (A) (A) (A) (A) (A) (A)
                 (A) (A) (A) (A) (A) (A) (A) (A) (A) (A) (A) (A)
                 (A) (A) (A) (A) (A) (A) (A) (A) (A) (A) (A) (A)
                 (A) (A) (A) (A) (A) (A) (A) (A) (A) (A) (A) (A)
                 (A) (A) (A) (A) (A) (A) (A) (A) (A) (A) (A) (A)
                 (A) (A) (A) (A) (A) (A) (A) (A) (A) (A) (A) (A)
                 (A) (A) (A) (A) (A) (A) (A) (A) (A) (A) (A) (A)
                 (A) (A) (A) (A) (A) (A) (A) (A) (A) (A) (A) (A)
                 (A) (A) (A) (A) (A) (A) (A) (A) (A) (A) (A) (A)
 The electronic state is 1-A.
 Alpha  occ. eigenvalues --  -24.66167 -19.13807 -10.25349 -10.23580  -1.17870
 Alpha  occ. eigenvalues --   -1.02008  -0.74348  -0.61791  -0.52655  -0.49676
 Alpha  occ. eigenvalues --   -0.46726  -0.44557  -0.42290  -0.35332  -0.32764
 Alpha  occ. eigenvalues --   -0.32090  -0.26693
 Alpha virt. eigenvalues --    0.05979   0.10930   0.12364   0.13003   0.16482
 Alpha virt. eigenvalues --    0.21920   0.22481   0.26088   0.42087   0.47724
 Alpha virt. eigenvalues --    0.49527   0.50162   0.52652   0.61416   0.65564
 Alpha virt. eigenvalues --    0.68004   0.71726   0.73472   0.74387   0.77413
 Alpha virt. eigenvalues --    0.81404   0.83992   0.87958   0.88235   0.89965
 Alpha virt. eigenvalues --    0.94320   0.95135   1.01759   1.03957   1.09286
 Alpha virt. eigenvalues --    1.11127   1.13206   1.24939   1.29066   1.35006
 Alpha virt. eigenvalues --    1.37627   1.41001   1.46069   1.49057   1.53567
 Alpha virt. eigenvalues --    1.58645   1.61435   1.65600   1.68993   1.76944
 Alpha virt. eigenvalues --    1.97375   2.01231   2.08833   2.10921   2.16428
 Alpha virt. eigenvalues --    2.35380   2.36206   2.39057   2.47516   2.51653
 Alpha virt. eigenvalues --    2.54303   2.62165   2.65495   2.75354   2.83037
 Alpha virt. eigenvalues --    2.89609   2.92161   2.98548   3.01777   3.05411
 Alpha virt. eigenvalues --    3.10466   3.28360   3.31386   3.35192   3.38077
 Alpha virt. eigenvalues --    3.44004   3.51133   3.53040   3.65285   3.66473
 Alpha virt. eigenvalues --    3.84928   3.91131   3.99140   4.11255   4.13610
 Alpha virt. eigenvalues --    4.22439   4.24185   4.32084   4.37674   4.41050
 Alpha virt. eigenvalues --    4.44238   4.45821   4.50575   4.53688   4.57524
 Alpha virt. eigenvalues --    4.58988   4.62236   4.68877   4.73950   4.76139
 Alpha virt. eigenvalues --    4.77941   4.81278   4.84620   4.99583   5.23425
 Alpha virt. eigenvalues --    5.29785   5.41204   5.47030   5.56343   5.87154
 Alpha virt. eigenvalues --    5.94036   6.03215   6.06040   6.67541   6.68961
 Alpha virt. eigenvalues --    6.80389   6.81531   7.03592   7.28041   7.32977
 Alpha virt. eigenvalues --    7.35584   9.55988  10.87657  11.93966  13.14900
          Condensed to atoms (all electrons):
               1          2          3          4          5          6
     1  C    4.859696   0.363621   0.358281   0.332447  -0.044488  -0.041761
     2  H    0.363621   0.677308  -0.061829  -0.032750  -0.008552   0.006108
     3  H    0.358281  -0.061829   0.677268  -0.029307   0.005809  -0.008826
     4  C    0.332447  -0.032750  -0.029307   4.681087   0.362262   0.362842
     5  H   -0.044488  -0.008552   0.005809   0.362262   0.660024  -0.056409
     6  H   -0.041761   0.006108  -0.008826   0.362842  -0.056409   0.659800
     7  F   -0.039569   0.000559   0.001254   0.399443  -0.022092  -0.023704
     8  O    0.360555  -0.032921  -0.029835  -0.034342   0.001196   0.000082
     9  H   -0.050351  -0.003175  -0.005190   0.006850  -0.000193  -0.000199
               7          8          9
     1  C   -0.039569   0.360555  -0.050351
     2  H    0.000559  -0.032921  -0.003175
     3  H    0.001254  -0.029835  -0.005190
     4  C    0.399443  -0.034342   0.006850
     5  H   -0.022092   0.001196  -0.000193
     6  H   -0.023704   0.000082  -0.000199
     7  F    8.814425   0.003444   0.000095
     8  O    0.003444   7.824139   0.305824
     9  H    0.000095   0.305824   0.455898
 Mulliken charges:
               1
     1  C   -0.098430
     2  H    0.091630
     3  H    0.092377
     4  C   -0.048532
     5  H    0.102442
     6  H    0.102067
     7  F   -0.133854
     8  O   -0.398140
     9  H    0.290441
 Sum of Mulliken charges =   0.00000
 Mulliken charges with hydrogens summed into heavy atoms:
               1
     1  C    0.085576
     4  C    0.155977
     7  F   -0.133854
     8  O   -0.107699
 APT charges:
               1
     1  C    0.468961
     2  H   -0.093730
     3  H   -0.085151
     4  C    0.581013
     5  H   -0.057935
     6  H   -0.064291
     7  F   -0.444021
     8  O   -0.545496
     9  H    0.240650
 Sum of APT charges =  -0.00000
 APT charges with hydrogens summed into heavy atoms:
               1
     1  C    0.290080
     4  C    0.458787
     7  F   -0.444021
     8  O   -0.304846
 Electronic spatial extent (au):  <R**2>=            284.2563
 Charge=              0.0000 electrons
 Dipole moment (field-independent basis, Debye):
    X=              1.5537    Y=              2.4112    Z=              0.0065  Tot=              2.8684
 Quadrupole moment (field-independent basis, Debye-Ang):
   XX=            -19.7726   YY=            -24.3188   ZZ=            -23.2313
   XY=             -1.3550   XZ=             -0.1310   YZ=              0.0341
 Traceless Quadrupole moment (field-independent basis, Debye-Ang):
   XX=              2.6683   YY=             -1.8779   ZZ=             -0.7904
   XY=             -1.3550   XZ=             -0.1310   YZ=              0.0341
 Octapole moment (field-independent basis, Debye-Ang**2):
  XXX=             11.7848  YYY=             -7.2306  ZZZ=             -0.1018  XYY=             -1.2731
  XXY=             -3.2364  XXZ=              0.0274  XZZ=             -2.0299  YZZ=             -1.6769
  YYZ=             -0.0251  XYZ=              0.2139
 Hexadecapole moment (field-independent basis, Debye-Ang**3):
 XXXX=           -155.3573 YYYY=            -96.6395 ZZZZ=            -33.6197 XXXY=             -7.8845
 XXXZ=              0.8758 YYYX=              2.3550 YYYZ=              0.1754 ZZZX=              0.1894
 ZZZY=              0.2319 XXYY=            -46.7135 XXZZ=            -36.8713 YYZZ=            -21.0638
 XXYZ=             -0.0405 YYXZ=              0.5728 ZZXY=              0.9773
 N-N= 1.311084205150D+02 E-N=-8.619921403562D+02  KE= 2.526604975545D+02
  Exact polarizability:      30.886      -1.273      28.275      -0.099      -0.125      25.822
 Approx polarizability:      37.593      -0.276      39.873       0.101      -0.126      34.994
 Calling FoFJK, ICntrl=    100127 FMM=F ISym2X=0 I1Cent= 0 IOpClX= 0 NMat=1 NMatS=1 NMatT=0.
 Full mass-weighted force constant matrix:
 Low frequencies --- -204.2657  -12.4260   -9.9791   -0.0015   -0.0009    0.0010
 Low frequencies ---    5.5585  237.9996  287.7746
 ******    1 imaginary frequencies (negative Signs) ****** 
 Diagonal vibrational polarizability:
        2.4169293       5.4799551      56.8045139
 Harmonic frequencies (cm**-1), IR intensities (KM/Mole), Raman scattering
 activities (A**4/AMU), depolarization ratios for plane and unpolarized
 incident light, reduced masses (AMU), force constants (mDyne/A),
 and normal coordinates:
                      1                      2                      3
                      A                      A                      A
 Frequencies --   -204.2650               237.9993               287.7392
 Red. masses --      1.9799                 1.0912                 9.1374
 Frc consts  --      0.0487                 0.0364                 0.4457
 IR Inten    --      0.0970               119.2128                 0.9312
  Atom  AN      X      Y      Z        X      Y      Z        X      Y      Z
     1   6    -0.02  -0.02  -0.15    -0.00  -0.00  -0.03    -0.04   0.11  -0.04
     2   1    -0.18  -0.29  -0.33    -0.01   0.03  -0.02     0.02  -0.02  -0.08
     3   1     0.09   0.23  -0.39     0.01  -0.03  -0.02     0.14   0.04  -0.08
     4   6     0.02  -0.02   0.15     0.00   0.00   0.01     0.01   0.10   0.04
     5   1    -0.12   0.23   0.41    -0.02   0.01   0.04    -0.17   0.01   0.08
     6   1     0.22  -0.29   0.34     0.03  -0.02   0.03    -0.03  -0.04   0.08
     7   9    -0.02   0.01  -0.11    -0.00   0.00   0.01     0.47  -0.05  -0.01
     8   8     0.02   0.01   0.12     0.00  -0.00  -0.07    -0.50  -0.07   0.01
     9   1     0.01   0.02   0.03     0.02   0.06   0.99    -0.48  -0.43   0.04
                      4                      5                      6
                      A                      A                      A
 Frequencies --    599.2562               860.3581               904.4762
 Red. masses --      4.9293                 1.2016                 3.3753
 Frc consts  --      1.0430                 0.5240                 1.6269
 IR Inten    --     27.0477                 4.2464                 6.3316
  Atom  AN      X      Y      Z        X      Y      Z        X      Y      Z
     1   6     0.25   0.20  -0.03    -0.04  -0.02  -0.07    -0.23  -0.15   0.04
     2   1     0.37   0.28   0.04     0.37   0.24   0.18    -0.33  -0.08   0.04
     3   1     0.13   0.14   0.09    -0.39  -0.22   0.26    -0.36  -0.02   0.00
     4   6     0.23  -0.17  -0.03    -0.00   0.00  -0.08     0.29  -0.14  -0.01
     5   1     0.13  -0.11   0.09    -0.36   0.19   0.26     0.55  -0.04  -0.08
     6   1     0.38  -0.24   0.04     0.42  -0.22   0.16     0.26   0.03  -0.10
     7   9    -0.19  -0.13   0.01     0.02   0.02   0.03     0.02   0.08   0.01
     8   8    -0.19   0.15   0.01     0.01  -0.02   0.03    -0.07   0.10  -0.02
     9   1    -0.16  -0.41   0.03     0.01   0.07  -0.03    -0.09   0.39  -0.02
                      7                      8                      9
                      A                      A                      A
 Frequencies --   1107.3512              1120.7385              1166.9104
 Red. masses --      4.9580                 4.8581                 1.7113
 Frc consts  --      3.5820                 3.5953                 1.3730
 IR Inten    --      8.7382               167.7812                 6.5031
  Atom  AN      X      Y      Z        X      Y      Z        X      Y      Z
     1   6    -0.11   0.35   0.01    -0.16   0.21   0.05     0.02  -0.03   0.17
     2   1    -0.25   0.20  -0.07    -0.06  -0.05  -0.03    -0.10  -0.52  -0.11
     3   1    -0.28   0.50  -0.05     0.08   0.21  -0.08     0.07   0.45  -0.22
     4   6     0.02  -0.28  -0.02     0.21   0.29  -0.04    -0.03  -0.01  -0.16
     5   1    -0.06  -0.33  -0.02     0.12   0.33   0.06    -0.21   0.32   0.19
     6   1    -0.06  -0.21  -0.06     0.24   0.10   0.02     0.21  -0.38   0.09
     7   9     0.03   0.18   0.01    -0.07  -0.22  -0.00     0.01   0.01   0.03
     8   8     0.07  -0.25   0.00     0.02  -0.20  -0.00    -0.01   0.03  -0.05
     9   1     0.08  -0.28   0.02    -0.01   0.66  -0.05    -0.00  -0.08   0.01
                     10                     11                     12
                      A                      A                      A
 Frequencies --   1238.9306              1274.1408              1294.7254
 Red. masses --      1.1145                 1.1009                 1.1010
 Frc consts  --      1.0079                 1.0530                 1.0874
 IR Inten    --     14.0114                11.4917                 2.1691
  Atom  AN      X      Y      Z        X      Y      Z        X      Y      Z
     1   6     0.02   0.02   0.02     0.03   0.01  -0.01    -0.01  -0.02   0.04
     2   1    -0.06  -0.00  -0.02     0.66  -0.38  -0.01     0.09  -0.19  -0.01
     3   1     0.59  -0.29  -0.02    -0.24   0.21  -0.02    -0.21   0.22  -0.04
     4   6    -0.01  -0.06  -0.03    -0.02  -0.03   0.06     0.01   0.02   0.05
     5   1    -0.31  -0.24   0.01     0.15  -0.03  -0.04    -0.41  -0.47  -0.06
     6   1     0.17   0.00   0.01    -0.24  -0.05  -0.01     0.43   0.51  -0.00
     7   9    -0.00   0.04  -0.01     0.00   0.01   0.00    -0.00  -0.01  -0.04
     8   8    -0.03  -0.01   0.02    -0.03  -0.01  -0.03     0.01   0.01  -0.02
     9   1    -0.06   0.61  -0.03    -0.05   0.47  -0.04     0.01  -0.14   0.01
                     13                     14                     15
                      A                      A                      A
 Frequencies --   1433.3739              1468.8689              1517.2729
 Red. masses --      1.2617                 1.4069                 1.0863
 Frc consts  --      1.5272                 1.7884                 1.4734
 IR Inten    --     15.3845                 0.7701                 1.0721
  Atom  AN      X      Y      Z        X      Y      Z        X      Y      Z
     1   6    -0.04   0.04   0.01     0.16  -0.03  -0.00     0.02   0.04  -0.00
     2   1     0.19  -0.06   0.02    -0.52   0.29  -0.05    -0.10  -0.29  -0.18
     3   1     0.24  -0.07  -0.04    -0.45   0.27   0.05    -0.08  -0.24   0.24
     4   6    -0.12  -0.06   0.00    -0.06  -0.01  -0.00     0.03  -0.06  -0.01
     5   1     0.55   0.32  -0.09     0.14   0.13  -0.02    -0.18   0.40   0.42
     6   1     0.59   0.34   0.07     0.20   0.15   0.03    -0.22   0.49  -0.30
     7   9     0.01  -0.01  -0.00     0.01  -0.01  -0.00     0.00  -0.01  -0.00
     8   8     0.01   0.00  -0.00    -0.04  -0.04   0.01     0.00   0.01  -0.00
     9   1     0.01  -0.07   0.01    -0.06   0.47  -0.03    -0.00  -0.00   0.00
                     16                     17                     18
                      A                      A                      A
 Frequencies --   1534.9002              2967.0484              2990.9875
 Red. masses --      1.0774                 1.0567                 1.1046
 Frc consts  --      1.4955                 5.4807                 5.8223
 IR Inten    --      1.2587                56.9715                38.5082
  Atom  AN      X      Y      Z        X      Y      Z        X      Y      Z
     1   6    -0.02  -0.06   0.01     0.04   0.05  -0.02    -0.01  -0.02  -0.09
     2   1     0.22   0.48   0.31    -0.20  -0.33   0.72    -0.15  -0.23   0.46
     3   1     0.20   0.39  -0.42    -0.18  -0.31  -0.43     0.29   0.46   0.59
     4   6     0.02  -0.04  -0.00     0.00  -0.01   0.00    -0.00   0.00   0.02
     5   1    -0.14   0.21   0.25    -0.04   0.06  -0.08    -0.03   0.04  -0.05
     6   1    -0.15   0.26  -0.18    -0.01   0.02   0.04     0.07  -0.08  -0.20
     7   9     0.00  -0.00  -0.00    -0.00  -0.00  -0.00     0.00   0.00  -0.00
     8   8    -0.00  -0.01   0.00    -0.00   0.00  -0.00     0.00  -0.00   0.00
     9   1    -0.01   0.03  -0.00    -0.00   0.01  -0.00    -0.00  -0.00   0.00
                     19                     20                     21
                      A                      A                      A
 Frequencies --   3022.5914              3065.5966              3833.8101
 Red. masses --      1.0566                 1.1094                 1.0664
 Frc consts  --      5.6875                 6.1430                 9.2348
 IR Inten    --     55.5889                65.5596                23.7622
  Atom  AN      X      Y      Z        X      Y      Z        X      Y      Z
     1   6    -0.01  -0.01  -0.01    -0.00  -0.00  -0.02    -0.00  -0.00   0.00
     2   1     0.00   0.00  -0.01    -0.04  -0.06   0.13     0.00  -0.00   0.00
     3   1     0.06   0.09   0.12     0.05   0.08   0.10     0.00  -0.00   0.00
     4   6     0.04  -0.05  -0.01    -0.01   0.01  -0.09     0.00  -0.00  -0.00
     5   1    -0.26   0.34  -0.50     0.32  -0.39   0.55    -0.00   0.00   0.00
     6   1    -0.21   0.26   0.66    -0.20   0.23   0.55    -0.00   0.00   0.00
     7   9    -0.00  -0.00  -0.00     0.00   0.00   0.00     0.00   0.00   0.00
     8   8    -0.00  -0.00   0.00     0.00  -0.00   0.00    -0.06  -0.00   0.00
     9   1    -0.00   0.00   0.00    -0.00  -0.00   0.00     1.00   0.05  -0.02

 -------------------
 - Thermochemistry -
 -------------------
 Temperature   298.150 Kelvin.  Pressure   1.00000 Atm.
 Atom     1 has atomic number  6 and mass  12.00000
 Atom     2 has atomic number  1 and mass   1.00783
 Atom     3 has atomic number  1 and mass   1.00783
 Atom     4 has atomic number  6 and mass  12.00000
 Atom     5 has atomic number  1 and mass   1.00783
 Atom     6 has atomic number  1 and mass   1.00783
 Atom     7 has atomic number  9 and mass  18.99840
 Atom     8 has atomic number  8 and mass  15.99491
 Atom     9 has atomic number  1 and mass   1.00783
 Molecular mass:    64.03244 amu.
 Principal axes and moments of inertia in atomic units:
                           1         2         3
     Eigenvalues --   122.09331 296.42521 395.01751
           X            0.99913  -0.04135  -0.00493
           Y            0.04134   0.99914  -0.00154
           Z            0.00499   0.00134   0.99999
 This molecule is an asymmetric top.
 Rotational symmetry number  1.
 Rotational temperatures (Kelvin)      0.70941     0.29219     0.21927
 Rotational constants (GHZ):          14.78166     6.08835     4.56876
    1 imaginary frequencies ignored.
 Zero-point vibrational energy     190966.3 (Joules/Mol)
                                   45.64205 (Kcal/Mol)
 Warning -- explicit consideration of   3 degrees of freedom as
           vibrations may cause significant error
 Vibrational temperatures:    342.43   413.99   862.20  1237.86  1301.34
          (Kelvin)           1593.23  1612.49  1678.92  1782.54  1833.20
                             1862.82  2062.31  2113.37  2183.02  2208.38
                             4268.92  4303.36  4348.83  4410.71  5516.00
 
 Zero-point correction=                           0.072735 (Hartree/Particle)
 Thermal correction to Energy=                    0.076909
 Thermal correction to Enthalpy=                  0.077853
 Thermal correction to Gibbs Free Energy=         0.046053
 Sum of electronic and zero-point Energies=           -254.197866
 Sum of electronic and thermal Energies=              -254.193692
 Sum of electronic and thermal Enthalpies=            -254.192748
 Sum of electronic and thermal Free Energies=         -254.224548
 
                     E (Thermal)             CV                S
                      KCal/Mol        Cal/Mol-Kelvin    Cal/Mol-Kelvin
 Total                   48.261             13.096             66.928
 Electronic               0.000              0.000              0.000
 Translational            0.889              2.981             38.389
 Rotational               0.889              2.981             24.173
 Vibrational             46.483              7.135              4.365
 Vibration     1          0.656              1.782              1.818
 Vibration     2          0.685              1.696              1.487
 Vibration     3          0.957              1.033              0.451
                       Q            Log10(Q)             Ln(Q)
 Total Bot       0.656084D-21        -21.183041        -48.775753
 Total V=0       0.187419D+13         12.272813         28.259197
 Vib (Bot)       0.761111D-33        -33.118552        -76.258284
 Vib (Bot)    1  0.824619D+00         -0.083747         -0.192834
 Vib (Bot)    2  0.665422D+00         -0.176903         -0.407334
 Vib (Bot)    3  0.249365D+00         -0.603164         -1.388836
 Vib (V=0)       0.217421D+01          0.337302          0.776667
 Vib (V=0)    1  0.146436D+01          0.165649          0.381420
 Vib (V=0)    2  0.133234D+01          0.124614          0.286935
 Vib (V=0)    3  0.105873D+01          0.024787          0.057073
 Electronic      0.100000D+01          0.000000          0.000000
 Translational   0.201397D+08          7.304054         16.818206
 Rotational      0.428013D+05          4.631457         10.664324
 ***** Axes restored to original set *****
 -------------------------------------------------------------------
 Center     Atomic                   Forces (Hartrees/Bohr)
 Number     Number              X              Y              Z
 -------------------------------------------------------------------
      1        6           0.000416749   -0.000360997    0.004533967
      2        1          -0.000046781    0.000073120    0.000011696
      3        1          -0.000015561    0.000079529   -0.000000306
      4        6          -0.000452513   -0.000255356   -0.004669785
      5        1           0.000027804    0.000078306   -0.000019262
      6        1          -0.000018183    0.000045570    0.000019075
      7        9           0.000255243    0.000112873    0.002931755
      8        8          -0.000122459    0.000194180   -0.002813201
      9        1          -0.000044300    0.000032775    0.000006062
 -------------------------------------------------------------------
 Cartesian Forces:  Max     0.004669785 RMS     0.001485796

 GradGradGradGradGradGradGradGradGradGradGradGradGradGradGradGradGradGrad
 Berny optimization.
 Search for a local minimum.
 Step number   1 out of a maximum of    2
 All quantities printed in internal units (Hartrees-Bohrs-Radians)
 Second derivative matrix not updated -- analytic derivatives used.
 ITU=  0
     Eigenvalues ---   -0.00444   0.00327   0.02770   0.03722   0.05735
     Eigenvalues ---    0.07374   0.07718   0.07911   0.10967   0.12045
     Eigenvalues ---    0.15481   0.15869   0.20278   0.29313   0.48022
     Eigenvalues ---    0.67178   0.69350   0.75076   0.78826   0.85495
     Eigenvalues ---    1.06096
 Eigenvalue     1 is  -4.44D-03 should be greater than     0.000000 Eigenvector:
                          Z5        Z3        Y6        Y2        Z7
   1                    0.35833  -0.34390   0.33293   0.32309  -0.28764
                          Z8        Z6        Z2        Y5        Y3
   1                    0.28632   0.28483  -0.28165  -0.28078  -0.26450
 Quadratic step=6.074D-01 exceeds max=3.000D-01 adjusted using Lamda=-4.530D-03.
 Angle between NR and scaled steps=   3.04 degrees.
 Angle between quadratic step and forces=  66.05 degrees.
 Linear search not attempted -- first point.
 B after Tr=     0.000788    0.002365    0.005412
         Rot=    0.999980    0.001369    0.006210   -0.000221 Ang=   0.73 deg.
 Variable       Old X    -DE/DX   Delta X   Delta X   Delta X     New X
                                 (Linear)    (Quad)   (Total)
    X1       -1.38683   0.00042   0.00000   0.00524   0.00406  -1.38277
    Y1        1.24143  -0.00036   0.00000  -0.00605  -0.00399   1.23745
    Z1        0.08930   0.00453   0.00000   0.03531   0.02017   0.10946
    X2       -1.93208  -0.00005   0.00000   0.02924   0.00480  -1.92728
    Y2        2.13143   0.00007   0.00000  -0.09171  -0.08483   2.04661
    Z2        1.89005   0.00001   0.00000   0.08316   0.05919   1.94924
    X3       -2.10789  -0.00002   0.00000  -0.00565   0.01081  -2.09708
    Y3        2.45777   0.00008   0.00000   0.07466   0.07239   2.53016
    Z3       -1.43644  -0.00000   0.00000   0.10106   0.07339  -1.36305
    X4        1.53747  -0.00045   0.00000  -0.00570  -0.00386   1.53362
    Y4        1.12320  -0.00026   0.00000  -0.00440  -0.00170   1.12149
    Z4       -0.09287  -0.00467   0.00000  -0.03963  -0.01825  -0.11112
    X5        2.40012   0.00003   0.00000   0.01209  -0.00468   2.39544
    Y5        2.24092   0.00008   0.00000   0.07378   0.08085   2.32177
    Z5        1.42381  -0.00002   0.00000  -0.10452  -0.07561   1.34820
    X6        2.17837  -0.00002   0.00000  -0.03741  -0.01282   2.16555
    Y6        1.89563   0.00005   0.00000  -0.08845  -0.09056   1.80507
    Z6       -1.90684   0.00002   0.00000  -0.08491  -0.05770  -1.96454
    X7        2.39251   0.00026   0.00000   0.00939   0.00850   2.40101
    Y7       -1.31549   0.00011   0.00000   0.00938   0.01330  -1.30218
    Z7        0.07061   0.00293   0.00000   0.09421   0.13302   0.20363
    X8       -2.35132  -0.00012   0.00000  -0.00724  -0.00356  -2.35488
    Y8       -1.24317   0.00019   0.00000   0.00871   0.00952  -1.23365
    Z8       -0.06858  -0.00281   0.00000  -0.10742  -0.12789  -0.19647
    X9       -4.16442  -0.00004   0.00000  -0.00483  -0.00325  -4.16768
    Y9       -1.12878   0.00003   0.00000   0.00454   0.00500  -1.12378
    Z9       -0.03597   0.00001   0.00000   0.03697  -0.00631  -0.04228
         Item               Value     Threshold  Converged?
 Maximum Force            0.004670     0.000450     NO 
 RMS     Force            0.001486     0.000300     NO 
 Maximum Displacement     0.133020     0.001800     NO 
 RMS     Displacement     0.054672     0.001200     NO 
 Predicted change in Energy=-1.058077D-03
 GradGradGradGradGradGradGradGradGradGradGradGradGradGradGradGradGradGrad


 ----------------------------------------------------------------------

 Electric dipole moment (input orientation):
 (Debye = 10**-18 statcoulomb cm , SI units = C m)
                  (au)            (Debye)         (10**-30 SI)
   Tot        0.112853D+01      0.286843D+01      0.956806D+01
   x         -0.611269D+00     -0.155369D+01     -0.518256D+01
   y          0.948640D+00      0.241120D+01      0.804290D+01
   z         -0.257332D-02     -0.654073D-02     -0.218175D-01

 Dipole polarizability, Alpha (input orientation).
 (esu units = cm**3 , SI units = C**2 m**2 J**-1)
 Alpha(0;0):
               (au)            (10**-24 esu)      (10**-40 SI)
   iso        0.283279D+02      0.419776D+01      0.467064D+01
   aniso      0.491734D+01      0.728674D+00      0.810759D+00
   xx         0.308864D+02      0.457690D+01      0.509249D+01
   yx         0.127306D+01      0.188648D+00      0.209900D+00
   yy         0.282751D+02      0.418994D+01      0.466193D+01
   zx        -0.985844D-01     -0.146087D-01     -0.162544D-01
   zy         0.125321D+00      0.185706D-01      0.206626D-01
   zz         0.258221D+02      0.382644D+01      0.425749D+01

 ----------------------------------------------------------------------

 Dipole orientation:
     6         -0.36412301         -0.34572368          1.79452146
     1          0.63249891         -1.84858589          2.83388901
     1         -1.14449142          0.96265213          3.21101584
     6          1.54763726          1.10742045          0.11159543
     1          3.48820620          0.55229689          0.58043660
     1          1.37003259          3.15009387          0.41789339
     9          1.12689362          0.64865053         -2.40186720
     8         -2.26436544         -1.37811600          0.22874614
     1         -3.47444574         -2.19956557          1.30690162

 Electric dipole moment (dipole orientation):
 (Debye = 10**-18 statcoulomb cm , SI units = C m)
                  (au)            (Debye)         (10**-30 SI)
   Tot        0.112853D+01      0.286843D+01      0.956806D+01
   x          0.000000D+00      0.000000D+00      0.000000D+00
   y          0.000000D+00      0.000000D+00      0.000000D+00
   z          0.112853D+01      0.286843D+01      0.956806D+01

 Dipole polarizability, Alpha (dipole orientation).
 (esu units = cm**3 , SI units = C**2 m**2 J**-1)
 Alpha(0;0):
               (au)            (10**-24 esu)      (10**-40 SI)
   iso        0.283279D+02      0.419776D+01      0.467064D+01
   aniso      0.491734D+01      0.728674D+00      0.810759D+00
   xx         0.296636D+02      0.439569D+01      0.489087D+01
   yx         0.249136D+01      0.369181D+00      0.410769D+00
   yy         0.274388D+02      0.406601D+01      0.452405D+01
   zx        -0.468702D+00     -0.694544D-01     -0.772785D-01
   zy        -0.496445D+00     -0.735656D-01     -0.818527D-01
   zz         0.278812D+02      0.413157D+01      0.459699D+01

 ----------------------------------------------------------------------
 Unable to Open any file for archive entry.
 1\1\GINC-COMPUTE-2-3\Freq\RB3LYP\6-31G(2df,p)\C2H5F1O1\JINGDAN2\05-Dec
 -2024\0\\# freq b3lyp/6-31g(2df,p)\\energy: -15.614184499692 gnorm: 0.
 000439253721 xtb: 6.6.1 (8d0f1dd)\\0,1\C,-0.733878,0.656937,0.047253\H
 ,-1.022414,1.127906,1.000173\H,-1.115447,1.300594,-0.760133\C,0.813595
 ,0.59437,-0.049145\H,1.270089,1.185842,0.753448\H,1.152742,1.003122,-1
 .009056\F,1.266063,-0.696125,0.037363\O,-1.244265,-0.657857,-0.036289\
 H,-2.203718,-0.597323,-0.019033\\Version=ES64L-G16RevC.01\State=1-A\HF
 =-254.2706008\RMSD=4.676e-09\RMSF=1.486e-03\ZeroPoint=0.0727352\Therma
 l=0.0769086\ETot=-254.1936922\HTot=-254.192748\GTot=-254.2245475\Dipol
 e=-0.6112694,0.9486399,-0.0025733\DipoleDeriv=0.3267877,0.194166,0.013
 7206,0.141087,0.6738568,0.0250107,0.0113038,0.0267942,0.4062385,-0.046
 2695,0.0094858,0.0460994,-0.0131509,-0.0741753,-0.0846781,0.0601168,-0
 .1179146,-0.1607462,-0.043461,0.0326409,-0.0433568,0.0059605,-0.109960
 6,0.0889525,-0.0644299,0.1208605,-0.1020299,0.5132169,-0.1658278,0.010
 7612,-0.1052316,0.8016348,-0.0272499,0.0084341,-0.0303875,0.4281877,-0
 .0469037,-0.0324694,-0.0504538,-0.0289427,-0.0509178,-0.0607609,-0.077
 3046,-0.0989377,-0.0759839,-0.0411749,-0.0055079,0.0522563,-0.0048906,
 -0.0229508,0.0502637,0.0777,0.086997,-0.1287459,-0.3925133,0.1987411,-
 0.0134735,0.2212188,-0.7190011,0.0400143,-0.0099783,0.0373659,-0.22054
 98,-0.4025099,-0.2744454,-0.0224413,-0.2717084,-0.752805,-0.02516,-0.0
 194268,-0.0190214,-0.4811723,0.1328277,0.0432166,0.0068879,0.0556579,0
 .254319,-0.0063923,0.0135848,-0.0057565,0.334802\Polar=30.886435,1.273
 0619,28.2750849,-0.0985844,0.1253207,25.8221026\Quadrupole=1.9838146,-
 1.3961625,-0.5876521,1.0074102,-0.097391,-0.0253634\PG=C01 [X(C2H5F1O1
 )]\NImag=1\\0.48365580,-0.02749037,0.50898557,-0.00039638,-0.00686008,
 0.57146622,-0.06992334,0.02751217,0.05603425,0.07509289,0.02662582,-0.
 08173707,-0.07322676,-0.02330823,0.10321944,0.05749417,-0.07679113,-0.
 23851688,-0.05990866,0.09284636,0.25244119,-0.08420947,0.04875106,-0.0
 6566652,0.00488416,-0.00300715,0.00743868,0.08831787,0.04592100,-0.116
 40620,0.09241952,-0.00259442,0.00980953,-0.00820239,-0.04923232,0.1419
 3668,-0.06775810,0.09728415,-0.19221499,-0.01126457,0.01491677,-0.0233
 4715,0.06869483,-0.11022607,0.19970616,-0.16766495,-0.00627578,0.01192
 313,-0.01037078,-0.00046600,-0.00097488,-0.00965571,0.00170546,0.00330
 952,0.47031394,0.01049507,-0.06738807,-0.00059084,0.00881565,0.0001589
 3,0.00117441,0.01591127,0.00002724,-0.00248044,0.03430390,0.52801858,0
 .01204579,-0.00119611,-0.08210043,0.02868391,-0.00462167,-0.00083116,-
 0.02255451,0.00488051,0.00199865,0.00324899,0.00902020,0.60310707,-0.0
 1126908,-0.01487197,-0.02229413,0.00090956,-0.00073894,0.00051677,-0.0
 0281270,0.00103665,0.00003431,-0.09870415,-0.05628000,-0.08245567,0.10
 353553,-0.00124139,0.00357893,-0.00400757,0.00080731,0.00146220,0.0004
 9372,-0.00140727,-0.00071746,0.00036005,-0.05208938,-0.10975728,-0.086
 18502,0.05561093,0.13577701,0.00436051,0.00220474,0.00278903,-0.000152
 30,0.00049250,0.00184748,0.00016669,-0.00031768,0.00088556,-0.08251595
 ,-0.09551301,-0.19998741,0.08519473,0.10695132,0.20472728,-0.01110588,
 -0.00738842,0.02839772,-0.00484382,0.00044860,0.00055587,0.00091158,-0
 .00050421,-0.00014799,-0.07708743,-0.02994007,0.07057835,0.00566123,0.
 00306831,-0.01295958,0.08214787,0.00094992,0.00198502,0.00332286,-0.00
 045380,0.00001009,-0.00028329,0.00112699,0.00151447,-0.00052860,-0.028
 10833,-0.07465670,0.06362610,0.00370899,0.00974705,-0.01394459,0.02402
 937,0.09689268,-0.00146804,-0.00141589,-0.00034111,0.00055287,0.000230
 72,0.00149326,0.00045303,-0.00048543,0.00193175,0.06957910,0.07263678,
 -0.25343017,0.00847923,0.00720472,-0.02120711,-0.07377342,-0.08702984,
 0.26562220,-0.01749114,0.03973914,-0.00460949,-0.00260851,0.00015193,-
 0.00011569,-0.00566160,0.00008299,0.00143765,-0.08288063,0.05877732,-0
 .00477785,0.00825814,-0.00571061,0.00467155,0.00659656,-0.00174948,-0.
 00364561,0.09393142,0.01218614,-0.01976371,0.00155547,0.00207600,0.000
 20673,-0.00010156,0.00238747,0.00024441,-0.00127628,0.06130019,-0.2617
 9331,0.01517201,0.01244633,-0.04022876,-0.00081704,0.01121194,-0.03581
 733,0.00875611,-0.09568509,0.35171211,-0.00187248,-0.00089196,0.002868
 18,-0.00031569,0.00084669,-0.00002587,-0.00019361,-0.00071277,0.000194
 34,-0.00307462,0.01390265,-0.06989391,0.01054905,-0.02548610,0.0107625
 9,-0.01232210,0.03571623,0.00596436,0.00739226,-0.02322864,0.04843221,
 -0.10639670,-0.06733128,-0.00420734,0.00572108,-0.00133509,-0.00478787
 ,0.00655724,0.00189405,0.00512205,-0.02340167,-0.04037392,-0.00404520,
 -0.00512778,0.00093142,0.00101791,-0.00213084,0.00055129,-0.00012171,-
 0.00090640,-0.00396304,-0.00020057,0.63970515,-0.01809281,-0.22143113,
 -0.01322202,-0.01311942,-0.03372805,-0.00835315,-0.01474369,-0.0373482
 0,0.00109831,-0.00932111,-0.00635890,0.00018292,0.00029779,-0.00017457
 ,0.00069441,-0.00036172,0.00016271,0.00018263,0.00191380,0.00437291,-0
 .00014904,0.04050773,0.33663152,0.00011448,-0.01227446,-0.06269877,-0.
 01277273,-0.03177606,0.00642912,0.01075738,0.02333318,0.01010477,-0.00
 141718,0.00183470,0.00074620,0.00005172,0.00064863,0.00020664,-0.00037
 621,-0.00077980,0.00017603,-0.00030917,-0.00002040,0.00152139,-0.00390
 559,0.02259092,0.04618767,-0.01559523,0.00735545,0.00081875,0.00113876
 ,0.00162906,-0.00021840,0.00166862,0.00169080,0.00057229,-0.00054862,-
 0.00170922,-0.00072381,-0.00045076,0.00003069,0.00021644,-0.00014927,-
 0.00005495,-0.00005546,0.00076215,-0.00195995,0.00003776,-0.51402010,0
 .01291943,0.00785730,0.52719444,-0.04935339,-0.00782333,0.00060942,0.0
 0026474,0.00059821,-0.00078297,0.00021364,0.00093953,0.00085211,-0.001
 04895,-0.00825047,-0.00087895,-0.00120978,0.00031287,0.00024936,-0.000
 56381,0.00016201,-0.00007980,0.00248000,0.00106694,0.00000293,0.069118
 84,-0.04212629,-0.00355671,-0.01990131,0.05512052,-0.00251997,-0.00005
 925,-0.00125124,-0.00085708,0.00029145,0.00051002,0.00090402,-0.000688
 87,0.00074090,-0.00007812,0.00001554,0.00039115,-0.00007601,0.00002026
 ,-0.00002405,0.00004738,-0.00009907,-0.00020919,-0.00004366,-0.0000396
 6,0.00017672,0.01112832,-0.00302499,-0.00267306,-0.00850488,0.00358460
 ,0.00233875\\-0.00041675,0.00036100,-0.00453397,0.00004678,-0.00007312
 ,-0.00001170,0.00001556,-0.00007953,0.00000031,0.00045251,0.00025536,0
 .00466978,-0.00002780,-0.00007831,0.00001926,0.00001818,-0.00004557,-0
 .00001907,-0.00025524,-0.00011287,-0.00293175,0.00012246,-0.00019418,0
 .00281320,0.00004430,-0.00003277,-0.00000606\\\@
 The archive entry for this job was punched.


 SIGN SEEN IN A RESTAURANT-
 WE RESERVE THE RIGHT TO SERVE REFUSE TO ANYONE.
 Job cpu time:       0 days  0 hours  6 minutes 46.0 seconds.
 Elapsed time:       0 days  0 hours  0 minutes 52.2 seconds.
 File lengths (MBytes):  RWF=     21 Int=      0 D2E=      0 Chk=      2 Scr=      1
 Normal termination of Gaussian 16 at Thu Dec  5 18:22:44 2024.
